Martini system
31159
    1CHOL   ROH    1  12.450   8.088   7.078  0.2945  0.0618  0.1109
    1CHOL    R1    2  12.610   8.273   6.936  0.2502  0.1025  0.1116
    1CHOL    R2    3  12.501   8.474   6.779  0.2009 -0.0218 -0.0243
    1CHOL    R3    4  12.656   8.634   6.933  0.0282  0.1310 -0.0090
    1CHOL    R4    5  12.599   8.794   6.695  0.2792 -0.0974 -0.2233
    1CHOL    R5    6  12.795   8.751   6.778  0.1913 -0.0130  0.0304
    1CHOL    C1    7  12.802   9.132   6.792  0.1628  0.0020 -0.3248
    1CHOL    C2    8  13.104   9.350   6.954 -0.0270 -0.2187  0.0879
    2XCA    COO    9  14.546   7.875   8.373  0.1324 -0.0017 -0.0148
    2XCA     C1   10  14.510   7.970   7.941  0.3497 -0.1084  0.0688
    2XCA     C2   11  14.401   8.114   7.540  0.1362 -0.1924  0.0153
    2XCA     C3   12  14.600   8.336   7.217 -0.3541  0.0819  0.0148
    2XCA     C4   13  14.726   8.579   6.861  0.2139  0.0289  0.0407
    2XCA     C5   14  14.847   8.832   6.642 -0.0490 -0.2755  0.0894
    2XCA     C6   15  14.794   9.290   6.604 -0.1110 -0.1805 -0.0452
    3XCA    COO   16   0.099   0.871   8.561 -0.1206 -0.0734  0.0322
    3XCA     C1   17  -0.005   0.447   8.495 -0.0403  0.0817  0.0172
    3XCA     C2   18   0.253   0.263   8.177 -0.1223  0.0075  0.0305
    3XCA     C3   19   0.248   0.076   7.904 -0.1702 -0.0032  0.0607
    3XCA     C4   20   0.280   0.199   7.371  0.0019  0.2433  0.2409
    3XCA     C5   21   0.163   0.396   7.016  0.1438 -0.1688  0.2896
    3XCA     C6   22   0.255   0.667   6.668  0.0560  0.0319  0.2259
    4XCA    COO   23   4.569   3.033   8.932  0.2734 -0.4164  0.2455
    4XCA     C1   24   4.550   2.984   8.516 -0.0733 -0.3689 -0.3316
    4XCA     C2   25   4.291   2.998   8.129 -0.1425  0.0325  0.0709
    4XCA     C3   26   4.101   2.918   7.787 -0.3651  0.3317 -0.2341
    4XCA     C4   27   3.819   2.860   7.481 -0.2627 -0.1745 -0.2277
    4XCA     C5   28   3.393   2.794   7.270 -0.0952 -0.1981 -0.1774
    4XCA     C6   29   3.349   2.510   6.974  0.0053  0.0165 -0.1394
    5CHOL   ROH   30   7.338   7.662   4.966 -0.2694 -0.0741 -0.0858
    5CHOL    R1   31   7.256   7.757   5.220 -0.1816  0.0634 -0.1078
    5CHOL    R2   32   7.434   7.803   5.426 -0.1495 -0.1409 -0.0929
    5CHOL    R3   33   7.320   8.050   5.426  0.1679  0.0094 -0.1313
    5CHOL    R4   34   7.448   8.027   5.689 -0.2348 -0.3174  0.0641
    5CHOL    R5   35   7.240   8.078   5.650 -0.1259 -0.0248 -0.2217
    5CHOL    C1   36   7.350   8.389   5.841  0.0135 -0.2790  0.1194
    5CHOL    C2   37   7.465   8.294   6.277 -0.1382 -0.0039 -0.0639
    6CHOL   ROH   38   2.124   9.220   8.549 -0.1799  0.0681 -0.0198
    6CHOL    R1   39   2.144   9.102   8.292 -0.2158  0.0529 -0.0144
    6CHOL    R2   40   1.942   9.121   8.104 -0.1055  0.3264 -0.1022
    6CHOL    R3   41   2.141   9.219   7.947  0.0960  0.0712 -0.0146
    6CHOL    R4   42   1.943   9.114   7.759  0.0604  0.2712 -0.1027
    6CHOL    R5   43   2.155   9.064   7.765  0.0068  0.0206  0.0158
    6CHOL    C1   44   2.130   9.202   7.410  0.3463 -0.0006 -0.0208
    6CHOL    C2   45   1.971   9.030   7.112  0.1324 -0.1891 -0.3858
    7XCA    COO   46   7.786  12.667   8.581  0.1079  0.0447 -0.1238
    7XCA     C1   47   7.558  12.839   8.256 -0.1603 -0.2434  0.1880
    7XCA     C2   48   7.439  13.120   7.977 -0.1621  0.0121 -0.0332
    7XCA     C3   49   7.485  13.000   7.573  0.0237 -0.0093 -0.2764
    7XCA     C4   50   7.197  12.960   7.226 -0.0368  0.3477  0.1973
    7XCA     C5   51   6.885  13.144   6.987  0.0765 -0.1774 -0.0993
    7XCA     C6   52   6.500  13.082   7.016 -0.0308 -0.3251 -0.2141
    8CHOL   ROH   53  10.509  10.134   7.329 -0.0961  0.0710 -0.1660
    8CHOL    R1   54  10.267  10.247   7.236 -0.1124  0.0999 -0.0875
    8CHOL    R2   55  10.032  10.103   7.221 -0.0992  0.0881 -0.1472
    8CHOL    R3   56   9.934  10.308   7.371 -0.1085 -0.0004 -0.0310
    8CHOL    R4   57   9.697  10.183   7.251 -0.0923  0.1558 -0.2376
    8CHOL    R5   58   9.752  10.394   7.242 -0.0274  0.1509 -0.0493
    8CHOL    C1   59   9.410  10.421   7.411 -0.0969  0.1121 -0.1812
    8CHOL    C2   60   9.152  10.192   7.363 -0.0734 -0.0304 -0.0183
    9PNCE   AM1   61   0.081   9.502   8.745  0.1882  0.1729 -0.0545
    9PNCE   AM2   62   0.029   9.118   8.654 -0.0951  0.0812  0.0768
    9PNCE   T1A   63   0.211   9.818   8.334 -0.6010  0.1260  0.1257
    9PNCE   C2A   64   0.320  10.072   7.985  0.2080  0.2151  0.0897
    9PNCE   C3A   65   0.191  10.439   7.752 -0.2725  0.0668  0.2736
    9PNCE   C1B   66  -0.320   9.327   8.489 -0.2991 -0.2417 -0.1717
    9PNCE   C2B   67  -0.650   9.397   8.161  0.0823 -0.0342 -0.3966
    9PNCE   C3B   68  -0.832   9.343   7.743 -0.2891  0.0954 -0.1776
    9PNCE   D4B   69  -1.056   9.390   7.326 -0.0247 -0.2190  0.1344
    9PNCE   C5B   70  -1.170   9.690   7.087  0.0534 -0.0973  0.1899
    9PNCE   C6B   71  -1.311  10.096   7.076  0.0183  0.0453  0.1627
   10PNCE   AM1   72   8.731   7.123   8.031 -0.1305 -0.0503  0.4156
   10PNCE   AM2   73   8.675   6.847   7.970 -0.0368 -0.1541  0.0186
   10PNCE   T1A   74   9.038   6.956   7.662 -0.1168  0.1107 -0.3308
   10PNCE   C2A   75   9.192   6.607   7.571 -0.0642  0.4385 -0.0433
   10PNCE   C3A   76   9.326   6.366   7.175 -0.0705  0.0512  0.1739
   10PNCE   C1B   77   8.323   7.067   7.889  0.0459  0.0972  0.4567
   10PNCE   C2B   78   7.915   7.252   7.632 -0.0668 -0.1958 -0.0078
   10PNCE   C3B   79   7.880   7.320   7.219 -0.0238  0.2463 -0.0704
   10PNCE   D4B   80   8.005   7.236   6.903 -0.1334  0.0227  0.1964
   10PNCE   C5B   81   7.763   7.051   6.649  0.2697 -0.3349  0.0386
   10PNCE   C6B   82   7.584   6.780   6.347 -0.2311  0.0248  0.2305
   11XCA    COO   83   9.544   2.577   8.999 -0.1651 -0.0785 -0.0371
   11XCA     C1   84   9.711   2.542   8.590  0.0403 -0.1726  0.0953
   11XCA     C2   85   9.766   2.479   8.181 -0.1006  0.4069 -0.0539
   11XCA     C3   86   9.719   2.584   7.797  0.1211 -0.1634  0.5215
   11XCA     C4   87   9.775   2.786   7.462 -0.5564  0.0682  0.0260
   11XCA     C5   88   9.908   3.033   7.180 -0.1193  0.1383 -0.4653
   11XCA     C6   89   9.834   3.455   7.050  0.0689 -0.1542  0.0902
   12CHOL   ROH   90   9.534   9.428   8.648  0.0262 -0.0021 -0.0993
   12CHOL    R1   91   9.440   9.492   8.389 -0.1969  0.0082 -0.0175
   12CHOL    R2   92   9.498   9.337   8.168 -0.1083  0.1958 -0.1250
   12CHOL    R3   93   9.227   9.335   8.139 -0.1262 -0.1453  0.0166
   12CHOL    R4   94   9.331   9.324   7.865 -0.2496  0.0051 -0.0415
   12CHOL    R5   95   9.187   9.467   7.944 -0.3949 -0.1789  0.0435
   12CHOL    C1   96   8.980   9.314   7.663 -0.3487 -0.4261  0.1402
   12CHOL    C2   97   8.577   9.307   7.554 -0.0881 -0.0862  0.2236
   13PNCE   AM1   98  12.798   5.534   7.171 -0.2697 -0.0473 -0.1062
   13PNCE   AM2   99  12.846   5.859   7.342  0.1001 -0.1299  0.0321
   13PNCE   T1A  100  13.067   5.539   6.903  0.0973  0.0564 -0.0493
   13PNCE   C2A  101  13.222   5.473   6.505 -0.0298  0.3440 -0.0850
   13PNCE   C3A  102  13.534   5.295   6.175  0.2205  0.0935  0.1597
   13PNCE   C1B  103  12.988   6.085   6.974 -0.1313 -0.0767 -0.0430
   13PNCE   C2B  104  13.056   6.101   6.618 -0.0982  0.0396  0.1524
   13PNCE   C3B  105  13.131   6.145   6.202 -0.1746 -0.1027 -0.1270
   13PNCE   D4B  106  13.325   6.116   5.834 -0.5848  0.2762 -0.1226
   13PNCE   C5B  107  13.136   6.377   5.528 -0.3930 -0.0186 -0.2606
   13PNCE   C6B  108  12.965   6.426   5.189  0.0420  0.0874 -0.1064
   14XCA    COO  109  13.367   1.579   8.738  0.0394  0.0367  0.2791
   14XCA     C1  110  13.030   1.753   8.455 -0.2447  0.0176 -0.0046
   14XCA     C2  111  12.975   1.658   8.044  0.0463 -0.0310  0.4902
   14XCA     C3  112  12.995   1.900   7.703  0.1557  0.1274  0.1282
   14XCA     C4  113  12.890   2.052   7.413  0.1051  0.1011 -0.1440
   14XCA     C5  114  13.009   2.113   6.952 -0.2538 -0.0218  0.2240
   14XCA     C6  115  13.381   2.121   7.058  0.2585  0.0067 -0.0491
   15CHOL   ROH  116   4.445   5.456   4.680  0.0440  0.0588 -0.0576
   15CHOL    R1  117   4.641   5.542   4.865 -0.0086  0.1404 -0.0439
   15CHOL    R2  118   4.592   5.740   5.052 -0.2086 -0.1073  0.1478
   15CHOL    R3  119   4.677   5.550   5.227  0.1098 -0.1519 -0.0416
   15CHOL    R4  120   4.700   5.801   5.375 -0.6742 -0.2344  0.3386
   15CHOL    R5  121   4.857   5.653   5.346 -0.2445  0.1803  0.2650
   15CHOL    C1  122   4.842   5.659   5.727 -0.6464 -0.3502  0.2719
   15CHOL    C2  123   4.952   5.531   6.089 -0.1320 -0.1181 -0.1398
   16PNCE   AM1  124   4.252   3.852   8.943 -0.1880 -0.1472  0.1843
   16PNCE   AM2  125   4.498   3.811   8.703  0.1027 -0.2543 -0.0900
   16PNCE   T1A  126   3.886   3.668   8.905 -0.1620  0.0356  0.2682
   16PNCE   C2A  127   3.478   3.496   8.722  0.2679  0.0191 -0.1367
   16PNCE   C3A  128   3.180   3.640   8.477 -0.2651  0.2579 -0.0621
   16PNCE   C1B  129   4.416   3.487   8.392  0.1499 -0.1252 -0.1950
   16PNCE   C2B  130   4.471   3.435   7.917  0.1740 -0.0794  0.2343
   16PNCE   C3B  131   4.519   3.251   7.565 -0.0583  0.2448 -0.2662
   16PNCE   D4B  132   4.252   3.135   7.178  0.1150 -0.2093  0.0225
   16PNCE   C5B  133   4.333   2.829   6.919 -0.2380 -0.0768  0.1741
   16PNCE   C6B  134   4.288   2.433   6.597 -0.1040 -0.2428 -0.0253
   17XCA    COO  135  10.638   4.397   8.109  0.1947 -0.1134 -0.0955
   17XCA     C1  136  10.659   4.077   7.875 -0.1502  0.0747 -0.1901
   17XCA     C2  137  10.934   3.827   7.610  0.1111  0.0899 -0.3704
   17XCA     C3  138  11.268   3.462   7.514 -0.1082  0.2998  0.0305
   17XCA     C4  139  11.645   3.359   7.633 -0.1517 -0.2332  0.1029
   17XCA     C5  140  11.903   2.946   7.764 -0.1100 -0.1701  0.1874
   17XCA     C6  141  11.842   2.502   7.860  0.0155 -0.0316  0.1454
   18PNCE   AM1  142   9.712  12.004   9.277  0.1482  0.0618  0.1453
   18PNCE   AM2  143   9.897  11.684   9.290 -0.2183  0.2771  0.3252
   18PNCE   T1A  144   9.286  11.831   9.226 -0.0784 -0.0351  0.1476
   18PNCE   C2A  145   9.028  11.519   8.997 -0.1470 -0.2441 -0.2962
   18PNCE   C3A  146   9.043  11.245   8.639 -0.2296  0.1248  0.0778
   18PNCE   C1B  147  10.218  12.147   9.232  0.2923 -0.1009  0.0934
   18PNCE   C2B  148  10.292  12.343   8.814 -0.0625 -0.3236 -0.1328
   18PNCE   C3B  149  10.021  12.769   8.535 -0.0022 -0.0559  0.0409
   18PNCE   D4B  150   9.943  13.232   8.312  0.1614  0.0635  0.1448
   18PNCE   C5B  151  10.033  13.313   7.857 -0.1949  0.1744 -0.2389
   18PNCE   C6B  152   9.589  13.374   7.673 -0.2719  0.2301  0.1006
   19PNCE   AM1  153  11.532  15.020   9.025  0.1786  0.0439  0.3146
   19PNCE   AM2  154  11.277  15.254   9.076  0.1103  0.0823 -0.4648
   19PNCE   T1A  155  11.608  15.030   8.630 -0.0143 -0.2152  0.2421
   19PNCE   C2A  156  11.843  15.054   8.250  0.0616  0.4705  0.0700
   19PNCE   C3A  157  11.932  15.275   7.857  0.0570 -0.0070  0.1496
   19PNCE   C1B  158  11.259  15.534   8.788  0.1340  0.0160 -0.0062
   19PNCE   C2B  159  11.590  15.675   8.599 -0.0207 -0.2249  0.1261
   19PNCE   C3B  160  11.480  15.548   8.128 -0.0256  0.0517 -0.1119
   19PNCE   D4B  161  11.388  15.385   7.717  0.2908  0.1158  0.3082
   19PNCE   C5B  162  11.059  15.059   7.793 -0.2188 -0.2116  0.0389
   19PNCE   C6B  163  10.632  14.995   7.821 -0.1171 -0.3317 -0.0368
   20PNCE   AM1  164  14.917   6.200   8.012  0.2810 -0.0428  0.1778
   20PNCE   AM2  165  14.839   6.493   8.014 -0.1017  0.0470 -0.2488
   20PNCE   T1A  166  15.300   6.276   7.831  0.1867  0.0636  0.2618
   20PNCE   C2A  167  15.585   6.157   7.498  0.2201  0.2072 -0.0720
   20PNCE   C3A  168  15.579   6.018   7.080 -0.0310 -0.2780  0.0252
   20PNCE   C1B  169  14.889   6.615   7.582 -0.1868 -0.1849  0.0299
   20PNCE   C2B  170  15.266   6.852   7.479  0.2818  0.1712 -0.2820
   20PNCE   C3B  171  15.310   7.076   7.163 -0.1025 -0.2160  0.3730
   20PNCE   D4B  172  15.183   7.122   6.817 -0.2397  0.1283 -0.0023
   20PNCE   C5B  173  15.119   7.154   6.355  0.1703  0.2090 -0.2359
   20PNCE   C6B  174  15.049   7.236   5.931 -0.0254  0.1137 -0.2426
   21XCA    COO  175   1.500  13.104   4.455 -0.0054  0.0858 -0.1948
   21XCA     C1  176   1.170  12.927   4.679  0.1445 -0.1070 -0.0359
   21XCA     C2  177   1.291  13.034   5.051  0.1516  0.2053  0.1840
   21XCA     C3  178   1.321  13.382   5.331  0.1073 -0.1315  0.2413
   21XCA     C4  179   1.457  13.394   5.723 -0.1277 -0.0104  0.1223
   21XCA     C5  180   1.365  13.712   6.115  0.0131 -0.0334  0.3224
   21XCA     C6  181   1.465  13.976   6.462  0.2971 -0.0026 -0.2195
   22PNCE   AM1  182   3.144   5.022   8.746 -0.1254  0.0765 -0.0836
   22PNCE   AM2  183   3.220   5.106   8.454  0.0086 -0.1759 -0.1324
   22PNCE   T1A  184   2.917   4.637   8.590 -0.1189 -0.0387  0.0587
   22PNCE   C2A  185   2.705   4.403   8.325 -0.0820  0.1903  0.1199
   22PNCE   C3A  186   2.413   4.082   8.319  0.1516 -0.0429  0.0005
   22PNCE   C1B  187   3.087   4.927   8.120  0.0425 -0.1943  0.0962
   22PNCE   C2B  188   2.917   4.809   7.660 -0.1221 -0.1006 -0.0778
   22PNCE   C3B  189   2.856   5.006   7.272  0.2665  0.2628 -0.0280
   22PNCE   D4B  190   2.395   5.101   7.204 -0.1017 -0.1927 -0.0138
   22PNCE   C5B  191   2.249   5.437   6.932  0.3270  0.1530 -0.1962
   22PNCE   C6B  192   2.154   5.826   6.896  0.4155 -0.0446 -0.3056
   23PNCE   AM1  193  15.696   3.461   8.699  0.1430  0.0218 -0.0207
   23PNCE   AM2  194  15.514   3.760   8.553 -0.2889  0.1984 -0.0736
   23PNCE   T1A  195  15.487   3.143   8.559  0.0309 -0.0706  0.1360
   23PNCE   C2A  196  15.192   3.015   8.231 -0.0494  0.0956  0.0309
   23PNCE   C3A  197  15.042   2.853   7.879 -0.3753 -0.3223  0.2234
   23PNCE   C1B  198  15.451   3.443   8.151 -0.3943  0.1687 -0.1646
   23PNCE   C2B  199  15.572   3.156   7.832 -0.2849  0.0759  0.1005
   23PNCE   C3B  200  15.501   2.987   7.398  0.0335  0.0400 -0.2146
   23PNCE   D4B  201  15.155   2.742   7.386 -0.1319  0.0347  0.1869
   23PNCE   C5B  202  15.049   2.466   6.995 -0.2443  0.2920  0.0174
   23PNCE   C6B  203  14.978   2.182   6.610 -0.0330 -0.0119 -0.0375
   24PNCE   AM1  204   7.331  14.170   8.615 -0.1538 -0.0928 -0.1079
   24PNCE   AM2  205   7.601  14.067   8.469  0.0717 -0.0136  0.1844
   24PNCE   T1A  206   7.196  14.255   8.198 -0.1495 -0.1843 -0.1004
   24PNCE   C2A  207   6.978  14.303   7.846  0.2020 -0.0855  0.0355
   24PNCE   C3A  208   6.772  14.379   7.397 -0.1899 -0.4026 -0.0283
   24PNCE   C1B  209   7.626  14.024   8.037  0.3538 -0.4432  0.2622
   24PNCE   C2B  210   7.318  13.998   7.603  0.2277  0.0347  0.3271
   24PNCE   C3B  211   7.230  14.265   7.153  0.1648 -0.0217 -0.0495
   24PNCE   D4B  212   7.291  14.215   6.710  0.1036  0.0546  0.4676
   24PNCE   C5B  213   7.126  13.950   6.562 -0.0456  0.0027 -0.2021
   24PNCE   C6B  214   6.874  13.708   6.391 -0.2584 -0.0821 -0.4977
   25XCA    COO  215  13.949   1.890   4.633 -0.1874 -0.2444  0.1630
   25XCA     C1  216  14.129   2.020   5.057 -0.4444  0.0069 -0.0646
   25XCA     C2  217  14.103   2.017   5.486  0.0280  0.0647  0.0191
   25XCA     C3  218  14.187   1.796   5.777 -0.1038  0.0093 -0.3276
   25XCA     C4  219  14.139   1.284   5.850 -0.1149 -0.0388 -0.1243
   25XCA     C5  220  13.920   0.961   6.055  0.0896  0.0579 -0.0110
   25XCA     C6  221  13.838   0.705   6.469 -0.0311 -0.0238  0.1942
   26CHOL   ROH  222   5.056   3.917   6.834 -0.0011  0.1462  0.0613
   26CHOL    R1  223   5.049   3.916   7.117  0.0030  0.0858  0.0620
   26CHOL    R2  224   4.824   3.843   7.261 -0.0206  0.1252  0.0506
   26CHOL    R3  225   4.996   3.670   7.380 -0.0726  0.0433  0.0063
   26CHOL    R4  226   4.789   3.719   7.581  0.0780  0.2478  0.1093
   26CHOL    R5  227   5.004   3.741   7.608  0.1080  0.1074 -0.0204
   26CHOL    C1  228   4.930   3.484   7.880  0.0866  0.2422  0.1019
   26CHOL    C2  229   4.818   3.242   8.203  0.1103  0.4907  0.2004
   27PNCE   AM1  230   1.521   4.247   8.610  0.1496 -0.0280  0.0754
   27PNCE   AM2  231   1.267   4.522   8.544  0.1750 -0.0201  0.2505
   27PNCE   T1A  232   1.891   4.474   8.418 -0.2956  0.0395  0.2492
   27PNCE   C2A  233   2.279   4.476   8.015  0.2722  0.0695 -0.1304
   27PNCE   C3A  234   2.615   4.253   7.808  0.2036 -0.1990 -0.2050
   27PNCE   C1B  235   1.465   4.275   8.123 -0.0256  0.1396  0.1302
   27PNCE   C2B  236   1.481   4.322   7.640 -0.0362  0.3546 -0.1315
   27PNCE   C3B  237   1.708   4.362   7.343  0.0756  0.0960 -0.1143
   27PNCE   D4B  238   1.712   4.341   6.941 -0.0222  0.0694  0.0925
   27PNCE   C5B  239   1.747   3.847   6.798 -0.0136  0.3044  0.0593
   27PNCE   C6B  240   1.683   3.553   6.357  0.2683  0.1230  0.1858
   28CHOL   ROH  241   3.118   4.767   5.327  0.0905 -0.0109 -0.1219
   28CHOL    R1  242   3.139   4.911   5.570 -0.0233  0.1055 -0.1797
   28CHOL    R2  243   2.929   4.934   5.748 -0.0577  0.0551 -0.2145
   28CHOL    R3  244   3.110   4.836   5.925 -0.0187  0.2389 -0.1503
   28CHOL    R4  245   2.932   5.004   6.086 -0.3218 -0.0273 -0.1926
   28CHOL    R5  246   3.150   5.017   6.076 -0.3280  0.2542 -0.0800
   28CHOL    C1  247   3.104   4.953   6.449 -0.4390  0.0973 -0.1197
   28CHOL    C2  248   3.215   5.001   6.801 -0.2731 -0.0999 -0.3053
   29PNCE   AM1  249   8.513   5.855   8.219 -0.0045  0.0729 -0.0794
   29PNCE   AM2  250   8.330   5.682   8.164  0.1352  0.0145  0.1854
   29PNCE   T1A  251   8.330   6.131   7.906 -0.0703 -0.0342  0.0147
   29PNCE   C2A  252   8.102   6.218   7.546  0.2522  0.0311 -0.3342
   29PNCE   C3A  253   8.038   6.400   7.151 -0.0552 -0.0518  0.0533
   29PNCE   C1B  254   8.143   5.748   7.747 -0.1112 -0.0032 -0.0908
   29PNCE   C2B  255   8.117   5.598   7.451 -0.1286 -0.2141 -0.0286
   29PNCE   C3B  256   8.008   5.369   7.063 -0.2661 -0.1471  0.1517
   29PNCE   D4B  257   7.888   5.153   6.822 -0.1412 -0.2745  0.0217
   29PNCE   C5B  258   8.105   4.966   6.650 -0.1999 -0.0006  0.1238
   29PNCE   C6B  259   8.269   4.505   6.779  0.0378 -0.1812  0.0348
   30XCA    COO  260   0.011   1.513   8.761 -0.0683  0.0925 -0.1412
   30XCA     C1  261  -0.135   1.290   8.387  0.1339  0.2244  0.2609
   30XCA     C2  262   0.010   0.875   8.085 -0.3616  0.1654  0.1352
   30XCA     C3  263   0.229   0.622   7.719 -0.0196 -0.0758  0.0949
   30XCA     C4  264   0.362   0.680   7.469 -0.1414  0.1077  0.2004
   30XCA     C5  265   0.341   0.994   7.110 -0.3194 -0.0560 -0.0306
   30XCA     C6  266   0.460   1.129   6.667 -0.3737  0.1228  0.2345
   31PNCE   AM1  267  10.917  15.188   8.728  0.4023 -0.1735  0.2183
   31PNCE   AM2  268  11.106  14.927   8.709  0.0946 -0.0711 -0.1632
   31PNCE   T1A  269  11.059  15.399   8.343 -0.1168  0.1665 -0.2580
   31PNCE   C2A  270  10.970  15.575   7.971 -0.2952 -0.1720 -0.0200
   31PNCE   C3A  271  11.011  16.060   8.011  0.3262 -0.0724  0.3402
   31PNCE   C1B  272  11.258  14.955   8.253 -0.1027  0.1408 -0.0105
   31PNCE   C2B  273  11.514  14.912   7.867  0.1480  0.0825 -0.2532
   31PNCE   C3B  274  11.679  14.989   7.514 -0.2151 -0.1590  0.0301
   31PNCE   D4B  275  11.717  15.321   7.251 -0.2260  0.0774 -0.0110
   31PNCE   C5B  276  11.443  15.672   7.232  0.1531 -0.0185 -0.1121
   31PNCE   C6B  277  11.719  16.025   7.170 -0.0063  0.0725 -0.0674
   32XCA    COO  278   1.441  10.813   9.231 -0.2969 -0.0972  0.2453
   32XCA     C1  279   1.406  10.864   8.786 -0.2672 -0.0435 -0.0463
   32XCA     C2  280   1.312  10.818   8.310 -0.1611 -0.2394 -0.0769
   32XCA     C3  281   1.149  10.919   7.873  0.0651  0.0981  0.0939
   32XCA     C4  282   1.088  10.731   7.449  0.3039 -0.1942  0.0412
   32XCA     C5  283   1.186  10.505   7.056 -0.4769  0.0737 -0.1257
   32XCA     C6  284   1.297  10.232   6.777  0.0425 -0.2019  0.1130
   33CHOL   ROH  285  15.244  15.644   8.312 -0.0585  0.2107 -0.0034
   33CHOL    R1  286  15.167  15.695   8.044  0.0723  0.2238 -0.0394
   33CHOL    R2  287  15.318  15.851   7.874  0.3119 -0.0112 -0.0516
   33CHOL    R3  288  15.305  15.632   7.713  0.0835 -0.0486  0.0153
   33CHOL    R4  289  15.309  15.860   7.528  0.1700 -0.1068 -0.0510
   33CHOL    R5  290  15.162  15.699   7.533  0.0551  0.0018  0.0580
   33CHOL    C1  291  15.292  15.659   7.177 -0.1269 -0.1975  0.0122
   33CHOL    C2  292  15.241  16.008   6.983 -0.1597 -0.0598 -0.1237
   34PNCE   AM1  293   3.973   1.854   8.978 -0.2496  0.1575  0.3364
   34PNCE   AM2  294   4.265   1.559   8.850 -0.2396  0.1773 -0.3187
   34PNCE   T1A  295   3.855   1.712   8.658 -0.0833  0.1370  0.2119
   34PNCE   C2A  296   3.803   1.770   8.232 -0.0616 -0.2867  0.2861
   34PNCE   C3A  297   3.897   1.831   7.837 -0.2148  0.4249  0.2777
   34PNCE   C1B  298   4.139   1.364   8.460 -0.0080  0.1136  0.0419
   34PNCE   C2B  299   4.023   1.342   8.077  0.1070  0.2070  0.0103
   34PNCE   C3B  300   3.700   1.317   7.778 -0.1790 -0.0052 -0.1523
   34PNCE   D4B  301   3.694   1.228   7.450 -0.0910 -0.3439  0.0109
   34PNCE   C5B  302   3.377   1.126   7.099  0.1467 -0.2743 -0.0548
   34PNCE   C6B  303   3.207   1.080   6.706  0.0398  0.0175 -0.0819
   35PNCE   AM1  304   0.522   5.155   8.184 -0.0363 -0.0722  0.0777
   35PNCE   AM2  305   0.169   4.975   8.055 -0.2112 -0.2089 -0.1873
   35PNCE   T1A  306   0.854   5.083   7.903  0.0175  0.0413  0.1755
   35PNCE   C2A  307   1.073   5.215   7.581 -0.1786 -0.0649  0.1198
   35PNCE   C3A  308   1.231   5.223   7.160 -0.3115 -0.1582 -0.3278
   35PNCE   C1B  309   0.403   5.118   7.674  0.0722 -0.0952  0.2518
   35PNCE   C2B  310   0.703   5.122   7.281  0.0497 -0.1737  0.2344
   35PNCE   C3B  311   0.870   5.329   6.865  0.0784  0.0451  0.1508
   35PNCE   D4B  312   1.051   4.932   6.640 -0.2355 -0.1001 -0.1416
   35PNCE   C5B  313   0.889   4.881   6.261  0.0939  0.1142  0.0669
   35PNCE   C6B  314   0.627   4.697   5.926 -0.1736  0.0091 -0.0946
   36PNCE   AM1  315   5.292   3.414   8.315 -0.0897  0.0538  0.0036
   36PNCE   AM2  316   5.193   3.721   8.408 -0.2356  0.3429  0.0029
   36PNCE   T1A  317   5.410   3.227   7.886  0.0453  0.2309 -0.1303
   36PNCE   C2A  318   5.502   2.822   7.525 -0.1277  0.0416 -0.2398
   36PNCE   C3A  319   5.508   2.462   7.281 -0.0965 -0.0491  0.0255
   36PNCE   C1B  320   4.798   3.796   8.208  0.0737  0.0582  0.0626
   36PNCE   C2B  321   4.523   3.922   7.917 -0.0711  0.0232  0.3705
   36PNCE   C3B  322   4.292   3.830   7.600 -0.0297  0.0514 -0.1944
   36PNCE   D4B  323   4.391   3.765   7.191  0.0987  0.3979  0.0297
   36PNCE   C5B  324   4.720   3.399   7.085  0.0944 -0.0569  0.1366
   36PNCE   C6B  325   5.152   3.469   6.945  0.0638  0.0748  0.3009
   37XCA    COO  326   8.780   6.508   8.562  0.0334 -0.0742  0.1728
   37XCA     C1  327   8.832   6.200   8.194  0.1374  0.1006 -0.2443
   37XCA     C2  328   8.772   6.395   7.813 -0.0917 -0.0487  0.0742
   37XCA     C3  329   8.543   6.413   7.392 -0.1406 -0.2132 -0.1867
   37XCA     C4  330   8.799   6.399   6.972  0.0178  0.0234  0.2001
   37XCA     C5  331   9.047   6.674   6.690 -0.2943  0.5317  0.2632
   37XCA     C6  332   9.312   6.700   6.304 -0.0857 -0.0727 -0.0007
   38CHOL   ROH  333   7.403   1.277   5.515 -0.5515  0.1171 -0.0556
   38CHOL    R1  334   7.488   1.290   5.784 -0.2868 -0.0341 -0.1288
   38CHOL    R2  335   7.357   1.441   5.975  0.0418  0.0587  0.0322
   38CHOL    R3  336   7.350   1.205   6.110 -0.0751  0.0313 -0.0205
   38CHOL    R4  337   7.152   1.375   6.245 -0.0601  0.0629 -0.0435
   38CHOL    R5  338   7.318   1.269   6.339 -0.1233 -0.0103 -0.0165
   38CHOL    C1  339   7.026   1.115   6.529 -0.2291  0.0397 -0.1370
   38CHOL    C2  340   6.899   1.215   6.889  0.0088 -0.0214 -0.1074
   39PNCE   AM1  341  11.221  11.345   4.887  0.0769 -0.2276  0.0351
   39PNCE   AM2  342  11.162  11.555   5.123  0.0896  0.1990  0.1880
   39PNCE   T1A  343  11.393  10.946   5.098 -0.0846  0.2870 -0.1447
   39PNCE   C2A  344  11.814  10.821   5.316 -0.0362 -0.0316 -0.0798
   39PNCE   C3A  345  12.181  10.782   5.528  0.1177 -0.2358 -0.1307
   39PNCE   C1B  346  11.292  11.576   5.491 -0.0236 -0.1145 -0.0090
   39PNCE   C2B  347  11.272  11.911   5.745  0.0948 -0.1426 -0.1596
   39PNCE   C3B  348  11.205  12.273   5.740 -0.2481 -0.1960  0.0757
   39PNCE   D4B  349  11.469  12.700   5.712  0.0594  0.4138 -0.1476
   39PNCE   C5B  350  11.827  13.113   5.557  0.0684  0.1668  0.2494
   39PNCE   C6B  351  12.163  12.994   5.200  0.0846 -0.3210  0.3636
   40PNCE   AM1  352   2.982  13.040   4.431 -0.1537  0.0654 -0.2849
   40PNCE   AM2  353   2.807  13.295   4.518  0.3320 -0.1026  0.0156
   40PNCE   T1A  354   3.117  12.705   4.739  0.0100  0.1686  0.2485
   40PNCE   C2A  355   3.214  12.256   4.662 -0.0405  0.1643  0.0639
   40PNCE   C3A  356   3.257  11.895   4.906  0.0182  0.0289  0.2771
   40PNCE   C1B  357   3.022  13.458   4.917 -0.1515  0.0208 -0.1219
   40PNCE   C2B  358   3.048  13.395   5.360 -0.2257 -0.1484 -0.2329
   40PNCE   C3B  359   3.262  13.054   5.638 -0.1533 -0.0397  0.4051
   40PNCE   D4B  360   3.282  12.731   5.849 -0.0782  0.0903 -0.0998
   40PNCE   C5B  361   2.942  12.441   5.747 -0.1375 -0.0539  0.1594
   40PNCE   C6B  362   2.593  12.479   5.391 -0.0928 -0.0227 -0.4399
   41CHOL   ROH  363   1.695   7.039   8.158 -0.1495  0.0075  0.0253
   41CHOL    R1  364   1.847   6.990   7.924 -0.0407  0.0888  0.0781
   41CHOL    R2  365   1.731   6.955   7.675  0.0700  0.1204  0.0190
   41CHOL    R3  366   1.900   7.155   7.604  0.0612  0.1710  0.1378
   41CHOL    R4  367   1.780   7.066   7.352  0.0379  0.3527  0.0919
   41CHOL    R5  368   1.993   7.083   7.395  0.0387  0.3220  0.0780
   41CHOL    C1  369   1.967   7.319   7.096  0.0109  0.5354  0.2459
   41CHOL    C2  370   2.045   7.627   6.934 -0.1919 -0.1938  0.3073
   42PNCE   AM1  371  12.131   8.621   8.199  0.1300  0.0096  0.1199
   42PNCE   AM2  372  11.921   8.906   8.251  0.3703 -0.1238  0.0383
   42PNCE   T1A  373  12.488   8.821   7.954 -0.1688  0.4112 -0.0963
   42PNCE   C2A  374  12.660   8.977   7.678  0.0228 -0.0127 -0.1627
   42PNCE   C3A  375  12.877   8.974   7.267 -0.2650  0.2683  0.0001
   42PNCE   C1B  376  11.614   8.873   7.928 -0.0313  0.1930  0.0394
   42PNCE   C2B  377  11.275   8.678   7.586  0.1664  0.2575 -0.1226
   42PNCE   C3B  378  10.891   8.698   7.330  0.1106 -0.1958 -0.3407
   42PNCE   D4B  379  10.751   8.816   6.962  0.1152  0.1074 -0.3423
   42PNCE   C5B  380  10.900   8.999   6.684 -0.0023 -0.0197 -0.1927
   42PNCE   C6B  381  11.075   9.180   6.316  0.2037 -0.1659  0.6591
   43PNCE   AM1  382   2.225  13.340   8.584  0.3222  0.0612  0.1413
   43PNCE   AM2  383   2.156  13.674   8.447 -0.1525  0.2556  0.0461
   43PNCE   T1A  384   2.331  12.869   8.538 -0.0425  0.1899 -0.0073
   43PNCE   C2A  385   2.230  12.607   8.279 -0.0664  0.1623 -0.4071
   43PNCE   C3A  386   2.192  12.684   7.867  0.1167  0.0112 -0.0483
   43PNCE   C1B  387   1.846  13.510   8.193 -0.3074  0.0515 -0.2722
   43PNCE   C2B  388   1.598  13.291   7.883 -0.0148  0.0973 -0.3641
   43PNCE   C3B  389   1.342  13.228   7.557  0.4991  0.1457 -0.0015
   43PNCE   D4B  390   1.197  13.260   7.146  0.0794  0.1589  0.0912
   43PNCE   C5B  391   1.621  13.179   6.779  0.2683 -0.1598 -0.2960
   43PNCE   C6B  392   1.762  13.529   6.529 -0.2544 -0.0242 -0.1807
   44XCA    COO  393  12.358   1.077   5.218  0.1827  0.1094 -0.0457
   44XCA     C1  394  12.524   1.268   5.607 -0.1050  0.1807 -0.0854
   44XCA     C2  395  12.518   1.453   6.044 -0.1190  0.1446 -0.1999
   44XCA     C3  396  12.432   1.238   6.461  0.1279  0.2735 -0.0896
   44XCA     C4  397  12.175   1.227   6.736  0.3024 -0.0060  0.0792
   44XCA     C5  398  12.118   1.480   7.035 -0.2589  0.2862 -0.0180
   44XCA     C6  399  12.011   1.548   7.432  0.2890  0.0225  0.1044
   45CHOL   ROH  400   6.153   2.680   4.898  0.1168 -0.3035  0.0185
   45CHOL    R1  401   6.169   2.709   5.179  0.2096 -0.1651 -0.0013
   45CHOL    R2  402   5.951   2.676   5.345  0.2478  0.0084  0.0763
   45CHOL    R3  403   6.114   2.498   5.469  0.2101  0.0076  0.1283
   45CHOL    R4  404   5.959   2.617   5.686  0.0390 -0.0825  0.0684
   45CHOL    R5  405   6.175   2.604   5.674  0.0558 -0.0310  0.2010
   45CHOL    C1  406   6.117   2.416   6.000 -0.1180 -0.1361  0.1127
   45CHOL    C2  407   6.149   2.403   6.495 -0.0665 -0.1560  0.0741
   46CHOL   ROH  408  12.278   4.878   7.556  0.1401  0.1874 -0.2145
   46CHOL    R1  409  12.227   4.820   7.283  0.1259  0.0059 -0.1751
   46CHOL    R2  410  12.232   4.563   7.182 -0.1001 -0.0886  0.0405
   46CHOL    R3  411  11.983   4.627   7.095 -0.0294  0.0745 -0.0459
   46CHOL    R4  412  12.093   4.456   6.884 -0.0499  0.0431 -0.0309
   46CHOL    R5  413  12.007   4.655   6.859  0.0782  0.0989 -0.0322
   46CHOL    C1  414  11.777   4.454   6.630  0.0457  0.2729 -0.1535
   46CHOL    C2  415  11.850   4.199   6.399 -0.4010  0.0772 -0.1722
   47XCA    COO  416   0.712   2.793   8.976 -0.0266  0.0500 -0.1128
   47XCA     C1  417   0.887   2.963   8.620 -0.3084  0.0929 -0.1123
   47XCA     C2  418   0.869   3.103   8.103  0.0015 -0.0447  0.2155
   47XCA     C3  419   1.064   3.108   7.780  0.0963  0.1302 -0.1777
   47XCA     C4  420   1.243   2.983   7.467  0.0391  0.1653 -0.2793
   47XCA     C5  421   1.628   2.986   7.287  0.0798  0.1441  0.1650
   47XCA     C6  422   1.925   3.276   7.441  0.1809 -0.1710  0.1593
   48CHOL   ROH  423  11.365  14.735   4.885 -0.0108  0.1032  0.0751
   48CHOL    R1  424  11.244  14.683   5.136 -0.0381 -0.0344  0.0330
   48CHOL    R2  425  11.222  14.429   5.241  0.2290 -0.0570  0.0281
   48CHOL    R3  426  11.346  14.541   5.455  0.0192  0.0960  0.0744
   48CHOL    R4  427  11.172  14.336   5.570  0.5311 -0.4237 -0.0207
   48CHOL    R5  428  11.178  14.547   5.625  0.0367 -0.4320  0.1278
   48CHOL    C1  429  11.259  14.388   5.962  0.5099 -0.4936 -0.0056
   48CHOL    C2  430  11.472  14.465   6.259  0.0637 -0.1880  0.1444
   49PNCE   AM1  431  10.515   8.273   8.084  0.1076  0.1585 -0.3616
   49PNCE   AM2  432  10.627   8.507   8.023  0.1865 -0.2773 -0.1630
   49PNCE   T1A  433  10.132   8.111   7.844 -0.0565 -0.0600  0.0111
   49PNCE   C2A  434   9.979   7.788   7.553  0.0921 -0.2210  0.0587
   49PNCE   C3A  435   9.799   7.439   7.311 -0.1033  0.3051  0.1713
   49PNCE   C1B  436  10.515   8.595   7.678 -0.1954 -0.2932 -0.0738
   49PNCE   C2B  437  10.354   8.822   7.296  0.0748 -0.0642 -0.3053
   49PNCE   C3B  438  10.261   8.977   6.833  0.3510  0.2477  0.1183
   49PNCE   D4B  439  10.345   8.806   6.485  0.1362  0.0812 -0.0025
   49PNCE   C5B  440  10.807   8.571   6.374  0.0306  0.1973 -0.1813
   49PNCE   C6B  441  11.155   8.555   6.663  0.4051 -0.0963  0.1990
   50PNCE   AM1  442  12.177   1.557   8.742  0.0065 -0.2921  0.0425
   50PNCE   AM2  443  12.320   1.228   8.857 -0.1213  0.0814  0.3364
   50PNCE   T1A  444  12.178   1.643   8.263 -0.1660  0.2795 -0.0045
   50PNCE   C2A  445  12.419   1.570   7.882  0.0157 -0.1927 -0.0553
   50PNCE   C3A  446  12.530   1.636   7.427 -0.0852  0.2526  0.0682
   50PNCE   C1B  447  12.307   1.097   8.477 -0.3284  0.0513 -0.0190
   50PNCE   C2B  448  12.104   1.113   8.053  0.0838  0.1627  0.2815
   50PNCE   C3B  449  11.845   0.958   7.727 -0.0521 -0.2603 -0.0078
   50PNCE   D4B  450  11.640   0.644   7.577  0.0182  0.0512  0.0154
   50PNCE   C5B  451  11.379   0.435   7.833  0.1502  0.2004 -0.4354
   50PNCE   C6B  452  11.113   0.668   8.206 -0.2881 -0.2516 -0.1408
   51CHOL   ROH  453   2.898  14.457   6.710  0.0327 -0.0557  0.0499
   51CHOL    R1  454   2.628  14.467   6.797  0.0215 -0.0988  0.0195
   51CHOL    R2  455   2.492  14.242   6.884  0.0709 -0.1068  0.0724
   51CHOL    R3  456   2.447  14.395   7.104  0.0074 -0.0528  0.0224
   51CHOL    R4  457   2.244  14.185   7.117 -0.0363 -0.0182 -0.0184
   51CHOL    R5  458   2.209  14.399   7.126 -0.0030 -0.0081 -0.0776
   51CHOL    C1  459   2.057  14.294   7.460 -0.1582  0.0841 -0.1181
   51CHOL    C2  460   1.980  14.007   7.548  0.1415 -0.2889 -0.1712
   52PNCE   AM1  461  10.422   5.751   7.357 -0.2441 -0.2863 -0.3446
   52PNCE   AM2  462  10.603   5.824   7.013 -0.1739  0.0360  0.0700
   52PNCE   T1A  463  10.080   5.739   7.024 -0.0072 -0.1598 -0.1642
   52PNCE   C2A  464   9.675   6.074   6.975  0.4301 -0.4207 -0.2528
   52PNCE   C3A  465   9.241   6.191   6.742  0.1109  0.2522  0.0287
   52PNCE   C1B  466  10.615   6.194   6.841  0.3305  0.5402 -0.2179
   52PNCE   C2B  467  10.467   6.230   6.485 -0.1437 -0.1916  0.3716
   52PNCE   C3B  468  10.472   5.864   6.104  0.0419  0.2710 -0.1508
   52PNCE   D4B  469  10.455   5.672   5.755 -0.0021  0.3297  0.0662
   52PNCE   C5B  470  10.234   5.726   5.363 -0.2653 -0.2108 -0.0858
   52PNCE   C6B  471  10.266   5.450   5.057 -0.1800  0.1102  0.0101
   53PNCE   AM1  472   7.647   1.058   9.063  0.1470 -0.1027 -0.0730
   53PNCE   AM2  473   7.533   0.737   9.047  0.0809 -0.0118 -0.4376
   53PNCE   T1A  474   7.892   0.966   8.601 -0.0466 -0.3206 -0.0151
   53PNCE   C2A  475   8.155   0.702   8.311  0.0418  0.0966 -0.0573
   53PNCE   C3A  476   8.180   0.258   8.090 -0.0375 -0.2141 -0.1213
   53PNCE   C1B  477   7.308   0.870   8.755 -0.1024  0.0398  0.1366
   53PNCE   C2B  478   7.162   0.937   8.257  0.0667 -0.0746 -0.0754
   53PNCE   C3B  479   7.046   0.729   7.965  0.0440  0.0732 -0.0020
   53PNCE   D4B  480   7.256   0.582   7.585  0.0331  0.0945 -0.2808
   53PNCE   C5B  481   7.109   0.830   7.290  0.1166 -0.2321 -0.1320
   53PNCE   C6B  482   7.074   1.306   7.380 -0.2045 -0.0791 -0.0883
   54CHOL   ROH  483   9.652   8.789   4.507 -0.1769  0.1699  0.1983
   54CHOL    R1  484   9.821   8.600   4.633 -0.1068  0.2154  0.1711
   54CHOL    R2  485   9.804   8.541   4.902 -0.2217  0.0263  0.1213
   54CHOL    R3  486   9.779   8.286   4.813  0.0271  0.0611 -0.0601
   54CHOL    R4  487   9.928   8.262   5.065 -0.0411  0.0249 -0.0150
   54CHOL    R5  488   9.988   8.182   4.870  0.1000  0.2017 -0.0528
   54CHOL    C1  489   9.977   7.860   5.075  0.2977  0.0565 -0.2646
   54CHOL    C2  490  10.122   7.647   5.310  0.1515 -0.0806  0.0780
   55XCA    COO  491   1.419  10.387   4.512 -0.2297 -0.0621  0.2878
   55XCA     C1  492   1.304  10.642   4.868 -0.0268  0.1864 -0.1496
   55XCA     C2  493   1.539  10.671   5.299 -0.0448 -0.0150  0.2648
   55XCA     C3  494   1.579  10.569   5.746 -0.0672 -0.1907 -0.2914
   55XCA     C4  495   1.937  10.372   5.999  0.3728 -0.0079  0.1476
   55XCA     C5  496   2.062  10.432   6.379  0.0272  0.0744 -0.2448
   55XCA     C6  497   2.349  10.145   6.526 -0.0004  0.0093 -0.0253
   56XCA    COO  498   2.753   1.816   4.870 -0.0631 -0.2681  0.0556
   56XCA     C1  499   2.863   1.570   5.310  0.0958  0.2101  0.2025
   56XCA     C2  500   2.913   1.645   5.751 -0.0688  0.3791 -0.1005
   56XCA     C3  501   2.897   1.775   6.171 -0.0012  0.2895 -0.4668
   56XCA     C4  502   3.074   1.761   6.584  0.3344  0.1041  0.0492
   56XCA     C5  503   3.161   1.682   6.974  0.0601  0.4087  0.0824
   56XCA     C6  504   3.193   1.493   7.419 -0.3151  0.0346  0.4133
   57CHOL   ROH  505   9.886   5.753   4.130 -0.2262 -0.0069  0.0852
   57CHOL    R1  506  10.047   5.543   4.232 -0.2464  0.0468  0.2248
   57CHOL    R2  507  10.323   5.554   4.233 -0.2434 -0.0819 -0.0222
   57CHOL    R3  508  10.292   5.503   4.498 -0.0440  0.2735  0.0788
   57CHOL    R4  509  10.573   5.442   4.443 -0.1495 -0.0696 -0.1239
   57CHOL    R5  510  10.428   5.310   4.537 -0.1949  0.1828  0.1813
   57CHOL    C1  511  10.690   5.328   4.814  0.0925  0.2713 -0.0883
   57CHOL    C2  512  10.936   5.043   4.959  0.3611  0.0541 -0.1807
   58CHOL   ROH  513  14.425   7.782   3.982  0.0484 -0.0253 -0.1894
   58CHOL    R1  514  14.589   7.655   4.173 -0.0374 -0.0675 -0.1431
   58CHOL    R2  515  14.725   7.794   4.369  0.0038 -0.0941 -0.1525
   58CHOL    R3  516  14.597   7.622   4.536 -0.1012 -0.0011 -0.1355
   58CHOL    R4  517  14.817   7.733   4.697  0.0688 -0.2401 -0.1973
   58CHOL    R5  518  14.774   7.521   4.663 -0.1484 -0.1947 -0.2194
   58CHOL    C1  519  14.750   7.535   5.044  0.0080 -0.2377 -0.2075
   58CHOL    C2  520  14.796   7.846   5.318  0.1712 -0.3668 -0.1877
   59CHOL   ROH  521   5.211  10.284   5.885  0.1626  0.0666 -0.1480
   59CHOL    R1  522   5.366  10.049   5.915  0.1777  0.0944  0.0086
   59CHOL    R2  523   5.447   9.954   6.161  0.0087  0.1473  0.0899
   59CHOL    R3  524   5.327   9.725   6.076  0.1035  0.1180  0.0358
   59CHOL    R4  525   5.510   9.640   6.289  0.1078  0.1438  0.0322
   59CHOL    R5  526   5.501   9.561   6.086  0.1584  0.1795  0.0210
   59CHOL    C1  527   5.435   9.241   6.284  0.2546  0.1141 -0.0521
   59CHOL    C2  528   5.433   9.152   6.662  0.2002  0.0469 -0.0740
   60PNCE   AM1  529  12.899  13.230   8.567 -0.0541  0.0592  0.0194
   60PNCE   AM2  530  12.792  13.528   8.428  0.2050  0.2194  0.1199
   60PNCE   T1A  531  13.006  13.222   8.066  0.1099  0.0367  0.1379
   60PNCE   C2A  532  13.154  13.323   7.666 -0.0165  0.0019 -0.0792
   60PNCE   C3A  533  13.302  13.216   7.240  0.0550  0.1903 -0.0420
   60PNCE   C1B  534  12.799  13.692   8.020 -0.0944  0.3050  0.2083
   60PNCE   C2B  535  12.843  13.994   7.736  0.0125 -0.1648 -0.1434
   60PNCE   C3B  536  12.936  14.243   7.618 -0.0667 -0.3428 -0.1991
   60PNCE   D4B  537  13.096  14.537   7.311  0.0475 -0.0318  0.0152
   60PNCE   C5B  538  12.874  14.775   7.096 -0.2025  0.0775  0.1785
   60PNCE   C6B  539  12.438  14.654   7.060 -0.2470  0.2034 -0.1717
   61PNCE   AM1  540  10.452   1.253   5.829  0.3520  0.5278  0.0151
   61PNCE   AM2  541  10.331   1.355   6.207 -0.3560  0.0013 -0.0186
   61PNCE   T1A  542  10.121   1.576   5.864  0.3032 -0.2020 -0.3089
   61PNCE   C2A  543   9.839   1.706   6.353  0.0213  0.1855 -0.0265
   61PNCE   C3A  544   9.975   1.673   6.756  0.0698 -0.0531 -0.0942
   61PNCE   C1B  545  10.138   1.162   6.540 -0.1957  0.1861  0.2032
   61PNCE   C2B  546  10.099   0.847   6.764 -0.0383 -0.1346  0.0783
   61PNCE   C3B  547  10.197   0.784   7.178  0.0840  0.2315 -0.0697
   61PNCE   D4B  548  10.470   0.730   7.505 -0.2290 -0.0228 -0.0287
   61PNCE   C5B  549  10.663   0.606   7.965  0.0097  0.3028 -0.1191
   61PNCE   C6B  550  10.693   0.449   8.374 -0.1414  0.1370 -0.0473
   62PNCE   AM1  551   1.521   9.702   8.523  0.4101 -0.3807  0.0592
   62PNCE   AM2  552   1.838   9.570   8.489  0.1916 -0.0050 -0.3520
   62PNCE   T1A  553   1.248   9.579   8.128  0.3217  0.2228  0.1616
   62PNCE   C2A  554   1.252   9.737   7.654  0.0906 -0.0174  0.0249
   62PNCE   C3A  555   1.211   9.555   7.219  0.1699 -0.1879 -0.2631
   62PNCE   C1B  556   1.745   9.488   8.057 -0.1155 -0.1011 -0.1860
   62PNCE   C2B  557   1.654   9.474   7.583 -0.2658  0.0340  0.0916
   62PNCE   C3B  558   1.689   9.482   7.147  0.2634  0.0242  0.1948
   62PNCE   D4B  559   1.753   9.429   6.671  0.0123 -0.2945  0.0704
   62PNCE   C5B  560   2.000   9.395   6.433 -0.0493  0.2156  0.1051
   62PNCE   C6B  561   2.522   9.255   6.304 -0.3035 -0.0009 -0.0985
   63PNCE   AM1  562   2.826  13.840   8.121 -0.3761 -0.0803  0.1390
   63PNCE   AM2  563   2.531  13.780   8.122  0.3974 -0.0554  0.0850
   63PNCE   T1A  564   3.282  13.816   7.928  0.1027 -0.0514  0.0461
   63PNCE   C2A  565   3.489  13.611   7.634  0.1269  0.2934 -0.3122
   63PNCE   C3A  566   3.755  13.241   7.486 -0.1835 -0.0448  0.1977
   63PNCE   C1B  567   2.471  13.902   7.673  0.0110 -0.1431  0.0374
   63PNCE   C2B  568   2.688  14.088   7.314 -0.0172  0.2309 -0.0312
   63PNCE   C3B  569   3.014  14.152   7.026  0.0392 -0.0630 -0.2907
   63PNCE   D4B  570   3.305  14.075   6.635  0.2091 -0.0630 -0.0859
   63PNCE   C5B  571   3.462  14.496   6.500  0.1407  0.0195  0.2892
   63PNCE   C6B  572   3.638  14.858   6.643  0.0493 -0.1289  0.1885
   64PNCE   AM1  573   3.538  13.523   8.223  0.0299 -0.0577 -0.3660
   64PNCE   AM2  574   3.537  13.247   8.419 -0.0101 -0.0309  0.0867
   64PNCE   T1A  575   3.551  13.142   7.947  0.0919  0.2866 -0.0085
   64PNCE   C2A  576   3.471  12.776   7.619  0.2868  0.2215 -0.1257
   64PNCE   C3A  577   3.295  12.724   7.198  0.0980 -0.1651  0.3051
   64PNCE   C1B  578   3.349  12.920   8.429  0.0607 -0.3978 -0.0300
   64PNCE   C2B  579   3.214  12.634   8.054 -0.2904  0.1741 -0.0531
   64PNCE   C3B  580   3.020  12.583   7.631  0.0499  0.0392  0.1311
   64PNCE   D4B  581   2.920  12.355   7.173 -0.0259 -0.0199 -0.0405
   64PNCE   C5B  582   2.987  12.535   6.701 -0.2098 -0.0195 -0.2495
   64PNCE   C6B  583   3.087  12.433   6.307 -0.3337  0.1233 -0.0499
   65PNCE   AM1  584   1.964  10.239   8.585  0.1685 -0.0791  0.0335
   65PNCE   AM2  585   2.028  10.516   8.625  0.1337 -0.0259 -0.2021
   65PNCE   T1A  586   1.811  10.056   8.219  0.3400 -0.0394 -0.0289
   65PNCE   C2A  587   1.758   9.952   7.662 -0.2528  0.3581  0.1889
   65PNCE   C3A  588   1.608  10.023   7.282 -0.3890  0.1525 -0.1488
   65PNCE   C1B  589   2.188  10.532   8.246  0.1779 -0.3605 -0.3027
   65PNCE   C2B  590   2.310  10.546   7.853 -0.0447  0.1362 -0.0991
   65PNCE   C3B  591   2.119  10.588   7.404 -0.1014 -0.1428  0.0497
   65PNCE   D4B  592   2.305  10.632   6.952  0.0589  0.0382  0.0144
   65PNCE   C5B  593   2.056  10.797   6.728  0.2842 -0.1081  0.1829
   65PNCE   C6B  594   1.599  10.748   6.799  0.2331 -0.3199 -0.0112
   66CHOL   ROH  595  11.746   4.138   8.064 -0.0082 -0.0005  0.0421
   66CHOL    R1  596  11.758   4.078   7.787 -0.1481 -0.0555  0.0473
   66CHOL    R2  597  11.973   3.949   7.672 -0.0711  0.1873 -0.0846
   66CHOL    R3  598  11.782   3.778   7.582  0.0714 -0.0808  0.1073
   66CHOL    R4  599  12.000   3.755   7.387 -0.1368  0.3355 -0.1931
   66CHOL    R5  600  11.791   3.799   7.344 -0.2728  0.0274  0.0976
   66CHOL    C1  601  11.836   3.482   7.137 -0.0412  0.1701 -0.0762
   66CHOL    C2  602  11.823   3.284   6.814 -0.2666  0.0044  0.0671
   67PNCE   AM1  603   6.452   1.917   9.145 -0.3323 -0.1093  0.1714
   67PNCE   AM2  604   6.764   1.841   9.028 -0.3546 -0.1051 -0.3437
   67PNCE   T1A  605   6.295   1.582   8.822  0.4128  0.0270  0.0079
   67PNCE   C2A  606   6.484   1.252   8.525  0.0890  0.0346  0.2181
   67PNCE   C3A  607   6.608   0.985   8.176  0.0587 -0.1729 -0.0620
   67PNCE   C1B  608   6.756   1.660   8.585  0.0703  0.0654  0.0012
   67PNCE   C2B  609   6.944   1.425   8.257 -0.3954  0.0543  0.0449
   67PNCE   C3B  610   6.896   1.249   7.872  0.2281 -0.0320  0.0753
   67PNCE   D4B  611   6.685   0.960   7.627 -0.1449 -0.1559  0.1007
   67PNCE   C5B  612   6.573   0.971   7.253 -0.0383 -0.5524  0.1599
   67PNCE   C6B  613   6.313   0.882   6.950 -0.1658  0.1672 -0.0725
   68CHOL   ROH  614   3.504   8.977   7.977 -0.3444 -0.1395  0.0243
   68CHOL    R1  615   3.390   9.085   7.741 -0.2148  0.0479  0.0452
   68CHOL    R2  616   3.455   9.337   7.647  0.0591  0.0088  0.1186
   68CHOL    R3  617   3.511   9.201   7.418 -0.0684  0.0108  0.0857
   68CHOL    R4  618   3.529   9.484   7.344  0.1249  0.0148  0.1379
   68CHOL    R5  619   3.408   9.332   7.245  0.0012  0.1186  0.1243
   68CHOL    C1  620   3.625   9.443   6.952  0.0435  0.0201  0.1182
   68CHOL    C2  621   3.830   9.729   6.731 -0.0299  0.0038 -0.2587
   69CHOL   ROH  622   6.421  13.583   5.021  0.1532  0.0557 -0.0049
   69CHOL    R1  623   6.391  13.746   5.251  0.1575  0.0919 -0.0300
   69CHOL    R2  624   6.208  13.690   5.450  0.1671  0.1190 -0.0148
   69CHOL    R3  625   6.426  13.704   5.611  0.1721  0.1513 -0.0241
   69CHOL    R4  626   6.200  13.681   5.795  0.1878  0.0367 -0.0161
   69CHOL    R5  627   6.354  13.835   5.798  0.1400  0.0859  0.0104
   69CHOL    C1  628   6.401  13.689   6.147  0.2046  0.0189 -0.0257
   69CHOL    C2  629   6.189  13.936   6.313 -0.1548  0.0928  0.0440
   70PNCE   AM1  630  15.118   5.813   7.739 -0.0231 -0.1695 -0.0179
   70PNCE   AM2  631  15.200   5.461   7.881  0.0473 -0.2483 -0.1226
   70PNCE   T1A  632  15.629   5.642   7.542 -0.0000 -0.1938  0.1272
   70PNCE   C2A  633  15.929   5.358   7.365  0.4017 -0.1627  0.1393
   70PNCE   C3A  634  16.300   5.501   7.252 -0.5626  0.2030  0.2045
   70PNCE   C1B  635  15.196   5.323   7.488  0.2475  0.0015  0.1834
   70PNCE   C2B  636  15.281   5.267   6.978 -0.2816  0.0791 -0.1333
   70PNCE   C3B  637  15.587   5.239   6.684 -0.4946  0.4040  0.0857
   70PNCE   D4B  638  15.904   5.098   6.358  0.0547 -0.1938 -0.1683
   70PNCE   C5B  639  15.965   5.126   5.879 -0.0013 -0.1659  0.1798
   70PNCE   C6B  640  16.021   4.862   5.503 -0.2262  0.0154 -0.1042
   71PNCE   AM1  641  12.606   9.481   8.128 -0.2923  0.0987  0.0507
   71PNCE   AM2  642  12.715   9.154   8.237 -0.0798  0.0977 -0.1211
   71PNCE   T1A  643  12.570   9.468   7.717 -0.2064  0.3542 -0.2791
   71PNCE   C2A  644  12.736   9.464   7.305 -0.0519  0.0391  0.3202
   71PNCE   C3A  645  12.583   9.649   6.845  0.0391 -0.1438 -0.0840
   71PNCE   C1B  646  13.056   9.289   7.922 -0.0901 -0.3412  0.1404
   71PNCE   C2B  647  13.158   9.418   7.513  0.4487  0.0715 -0.1941
   71PNCE   C3B  648  13.392   9.647   7.176  0.1151  0.1682 -0.3158
   71PNCE   D4B  649  13.629   9.800   6.924 -0.0686  0.1271  0.0214
   71PNCE   C5B  650  13.922  10.076   7.114 -0.3175  0.4658 -0.0274
   71PNCE   C6B  651  14.177  10.267   7.457  0.3469 -0.3680  0.0235
   72PNCE   AM1  652  15.329   2.184   8.439 -0.3070  0.2149 -0.1033
   72PNCE   AM2  653  15.503   2.261   8.618 -0.0372  0.3340 -0.1134
   72PNCE   T1A  654  15.747   2.265   8.144 -0.1266  0.0254  0.1347
   72PNCE   C2A  655  16.222   2.268   8.084 -0.0899  0.2121  0.2130
   72PNCE   C3A  656  16.413   2.215   7.658  0.2700  0.0862  0.0894
   72PNCE   C1B  657  15.792   2.675   8.464 -0.2178 -0.1201  0.0337
   72PNCE   C2B  658  15.905   3.057   8.209  0.1774  0.2067 -0.0219
   72PNCE   C3B  659  16.018   3.002   7.644  0.1748 -0.3932  0.2746
   72PNCE   D4B  660  15.990   2.929   7.175  0.0331  0.4044  0.0084
   72PNCE   C5B  661  15.968   2.553   6.951 -0.4652 -0.1463  0.1557
   72PNCE   C6B  662  16.056   2.264   6.590 -0.0632  0.0690  0.1851
   73CHOL   ROH  663   4.466  10.753   5.472 -0.0677 -0.0713  0.1214
   73CHOL    R1  664   4.470  10.824   5.746  0.0601 -0.0274  0.1098
   73CHOL    R2  665   4.664  10.987   5.856  0.1120 -0.0069 -0.0058
   73CHOL    R3  666   4.450  11.131   5.941  0.1491  0.0039  0.0691
   73CHOL    R4  667   4.676  11.235   6.096  0.2022 -0.0209  0.0041
   73CHOL    R5  668   4.487  11.160   6.175  0.2228 -0.0108  0.0580
   73CHOL    C1  669   4.481  11.515   6.315  0.2896 -0.0189  0.0801
   73CHOL    C2  670   4.467  11.881   6.276 -0.1369 -0.0420 -0.1740
   74CHOL   ROH  671  13.684  11.312   8.480  0.0633 -0.1555 -0.0464
   74CHOL    R1  672  13.702  11.243   8.206  0.0379 -0.1245 -0.0563
   74CHOL    R2  673  13.500  11.108   8.073  0.0636 -0.1924 -0.0305
   74CHOL    R3  674  13.516  11.318   7.902 -0.0509 -0.1694 -0.0130
   74CHOL    R4  675  13.413  11.097   7.739  0.0891 -0.2153 -0.0362
   74CHOL    R5  676  13.587  11.221   7.695  0.0178 -0.1097 -0.0165
   74CHOL    C1  677  13.377  11.289   7.384 -0.0036 -0.2071 -0.0231
   74CHOL    C2  678  13.369  11.240   7.023  0.1177 -0.3580 -0.1180
   75PNCE   AM1  679  10.442  10.191   8.892 -0.0037  0.1510  0.1038
   75PNCE   AM2  680  10.680  10.012   8.686  0.0536  0.0384  0.3522
   75PNCE   T1A  681  10.157  10.166   8.507 -0.0752 -0.1121 -0.0764
   75PNCE   C2A  682   9.982  10.260   8.204 -0.2383 -0.0411  0.0525
   75PNCE   C3A  683  10.021  10.527   7.943 -0.0452  0.0625 -0.4016
   75PNCE   C1B  684  10.573  10.220   8.249  0.1090  0.1938  0.0173
   75PNCE   C2B  685  10.446  10.254   7.774 -0.1118 -0.1635  0.1546
   75PNCE   C3B  686  10.263  10.565   7.534  0.0374 -0.0120  0.0749
   75PNCE   D4B  687  10.063  10.742   7.285 -0.0649 -0.0995  0.0376
   75PNCE   C5B  688   9.559  10.776   7.090 -0.1080 -0.1097 -0.0699
   75PNCE   C6B  689   9.155  10.540   7.016 -0.0601 -0.0061  0.0509
   76XCA    COO  690   9.663   8.421   4.234  0.0237  0.1158 -0.0952
   76XCA     C1  691   9.378   8.367   4.631  0.0034  0.0269  0.0415
   76XCA     C2  692   9.221   8.511   5.029 -0.3049 -0.2612 -0.0010
   76XCA     C3  693   9.243   8.459   5.478 -0.1565  0.1166  0.1686
   76XCA     C4  694   9.476   8.409   5.891  0.1768  0.0690  0.1520
   76XCA     C5  695   9.437   8.444   6.333  0.0363 -0.0194 -0.0105
   76XCA     C6  696   9.268   8.437   6.725 -0.0552  0.3659 -0.1248
   77CHOL   ROH  697   5.156  14.357   5.205 -0.1980  0.1738 -0.1874
   77CHOL    R1  698   5.257  14.286   5.459 -0.1420  0.0810 -0.2356
   77CHOL    R2  699   5.139  14.368   5.695 -0.0281  0.0843 -0.1805
   77CHOL    R3  700   5.137  14.102   5.749 -0.1211  0.0735 -0.2313
   77CHOL    R4  701   5.114  14.231   6.011  0.1888  0.0391 -0.1816
   77CHOL    R5  702   5.262  14.082   5.953  0.0574 -0.0309 -0.3472
   77CHOL    C1  703   5.099  13.901   6.247  0.2277  0.0028 -0.2299
   77CHOL    C2  704   5.177  13.802   6.615 -0.3405  0.2683  0.2550
   78PNCE   AM1  705   8.946  15.842   9.322  0.3188 -0.0901 -0.0164
   78PNCE   AM2  706   9.116  15.584   9.134 -0.1147  0.0377 -0.2541
   78PNCE   T1A  707   9.007  16.154   9.031  0.2112  0.0247  0.1505
   78PNCE   C2A  708   8.776  16.445   8.955 -0.0223  0.0214  0.1618
   78PNCE   C3A  709   8.547  16.625   8.683 -0.1406 -0.1858  0.3103
   78PNCE   C1B  710   8.997  15.679   8.714 -0.0709 -0.1765  0.0348
   78PNCE   C2B  711   8.947  15.914   8.365  0.1658 -0.1352 -0.2430
   78PNCE   C3B  712   8.701  15.784   7.928 -0.2230  0.1319  0.1151
   78PNCE   D4B  713   8.534  15.584   7.625 -0.0791 -0.3280  0.5673
   78PNCE   C5B  714   8.360  15.785   7.157  0.1335  0.0950 -0.0505
   78PNCE   C6B  715   8.349  15.910   6.772 -0.0088  0.2460 -0.3945
   79XCA    COO  716   0.829  13.307   4.621  0.0712  0.1020  0.0406
   79XCA     C1  717   0.966  13.448   5.029  0.3056 -0.2073  0.1106
   79XCA     C2  718   0.835  13.433   5.462  0.1390 -0.0499  0.0200
   79XCA     C3  719   0.593  13.254   5.849  0.0252 -0.1996 -0.0226
   79XCA     C4  720   0.465  13.536   6.155  0.3120  0.1233  0.1429
   79XCA     C5  721   0.032  13.661   6.302  0.1307  0.3034 -0.1005
   79XCA     C6  722  -0.352  13.814   6.094  0.0260  0.2302  0.1659
   80PNCE   AM1  723   7.137   5.069   8.348  0.2837  0.1986  0.0355
   80PNCE   AM2  724   6.820   5.128   8.167 -0.3033 -0.0637  0.4199
   80PNCE   T1A  725   7.286   4.859   8.026 -0.1206  0.1929  0.2480
   80PNCE   C2A  726   7.532   4.570   7.767 -0.1508  0.0587  0.4734
   80PNCE   C3A  727   7.731   4.194   7.714  0.0662 -0.1670 -0.0519
   80PNCE   C1B  728   6.844   4.966   7.835  0.1939 -0.0852 -0.2397
   80PNCE   C2B  729   7.031   4.679   7.438 -0.2395  0.0525 -0.0241
   80PNCE   C3B  730   7.302   4.602   7.125 -0.1378 -0.0426  0.1747
   80PNCE   D4B  731   7.703   4.706   6.917  0.0180  0.1704  0.3517
   80PNCE   C5B  732   7.805   4.495   6.453 -0.1238 -0.3487 -0.0118
   80PNCE   C6B  733   7.666   4.616   6.046  0.2367  0.1461 -0.1663
   81XCA    COO  734   5.540  10.772   8.743 -0.4808 -0.0324 -0.0208
   81XCA     C1  735   5.485  10.900   8.379  0.0041  0.1964  0.2450
   81XCA     C2  736   5.577  10.772   7.890  0.1135 -0.1318  0.2445
   81XCA     C3  737   5.439  10.921   7.463 -0.0004 -0.2092 -0.1919
   81XCA     C4  738   5.231  10.875   7.171  0.0028  0.2254 -0.2398
   81XCA     C5  739   5.084  10.712   6.753 -0.0183 -0.0595 -0.2947
   81XCA     C6  740   5.242  10.437   6.300 -0.3495 -0.0703 -0.1308
   82CHOL   ROH  741  12.404   6.079   3.947 -0.0709 -0.0205  0.0540
   82CHOL    R1  742  12.284   6.181   4.182 -0.0976  0.0620  0.0063
   82CHOL    R2  743  12.121   6.404   4.182 -0.1303  0.0441 -0.0947
   82CHOL    R3  744  11.945   6.236   4.304 -0.1115  0.0668 -0.0385
   82CHOL    R4  745  11.832   6.503   4.345 -0.1453  0.0584 -0.1313
   82CHOL    R5  746  11.874   6.355   4.499 -0.1308  0.1205 -0.0827
   82CHOL    C1  747  11.500   6.402   4.554 -0.1364  0.0879 -0.0999
   82CHOL    C2  748  11.328   6.600   4.893 -0.2307 -0.1456 -0.1963
   83CHOL   ROH  749   8.781  13.275   4.587  0.0868  0.1931 -0.0345
   83CHOL    R1  750   8.878  13.087   4.775  0.1545  0.0472 -0.2120
   83CHOL    R2  751   9.139  13.087   4.864  0.0771  0.2641  0.0226
   83CHOL    R3  752   9.023  13.098   5.109 -0.1653 -0.2362 -0.0569
   83CHOL    R4  753   9.279  12.963   5.154  0.0467  0.1570 -0.0080
   83CHOL    R5  754   9.082  12.890   5.212  0.1125 -0.2671 -0.2625
   83CHOL    C1  755   9.251  12.900   5.554 -0.1987 -0.3751 -0.1004
   83CHOL    C2  756   9.438  12.730   5.842  0.0484  0.1833  0.3380
   84PNCE   AM1  757   6.760   0.838   8.795 -0.2130  0.0733  0.0387
   84PNCE   AM2  758   6.425   0.740   8.611  0.1264  0.0588  0.3173
   84PNCE   T1A  759   6.998   1.237   8.725  0.1092  0.0138  0.4010
   84PNCE   C2A  760   7.346   1.455   8.830  0.1554  0.2853  0.1628
   84PNCE   C3A  761   7.737   1.698   8.603  0.2780 -0.1568  0.2362
   84PNCE   C1B  762   6.339   0.555   8.198 -0.2388 -0.0626  0.1198
   84PNCE   C2B  763   6.556   0.209   7.935 -0.1880 -0.0987 -0.0301
   84PNCE   C3B  764   6.896  -0.123   7.700 -0.1095  0.0172 -0.0329
   84PNCE   D4B  765   7.294   0.049   7.618 -0.1513 -0.1069  0.1331
   84PNCE   C5B  766   7.636  -0.128   7.553 -0.0807  0.1426  0.2718
   84PNCE   C6B  767   7.739  -0.408   7.839 -0.0624  0.0154 -0.0916
   85PNCE   AM1  768  14.679   5.503   7.794  0.2238  0.3541 -0.0152
   85PNCE   AM2  769  14.694   5.656   7.464 -0.0153  0.0317 -0.0218
   85PNCE   T1A  770  14.719   5.203   7.474  0.2806  0.1551  0.3432
   85PNCE   C2A  771  14.935   4.992   7.184  0.0944  0.0046  0.0051
   85PNCE   C3A  772  15.236   4.765   6.891  0.4068  0.0462  0.1332
   85PNCE   C1B  773  15.026   5.699   7.156 -0.0120 -0.3275 -0.0638
   85PNCE   C2B  774  15.181   5.777   6.903 -0.3992  0.2448  0.0330
   85PNCE   C3B  775  15.161   5.837   6.485  0.0443 -0.0122 -0.0018
   85PNCE   D4B  776  15.267   5.980   6.083  0.1329  0.0346 -0.1164
   85PNCE   C5B  777  15.618   6.049   6.055  0.1313 -0.1184  0.0336
   85PNCE   C6B  778  15.950   6.250   6.298 -0.0102 -0.1474  0.0839
   86CHOL   ROH  779  11.446  12.794   6.693 -0.0663  0.4014  0.2556
   86CHOL    R1  780  11.649  12.919   6.539 -0.0439  0.2215  0.1328
   86CHOL    R2  781  11.671  13.193   6.517  0.1682  0.2132  0.0894
   86CHOL    R3  782  11.925  13.147   6.602  0.1708  0.0063 -0.0320
   86CHOL    R4  783  11.915  13.436   6.555  0.3776  0.0088  0.0582
   86CHOL    R5  784  12.060  13.296   6.472  0.2320 -0.0678 -0.0361
   86CHOL    C1  785  12.295  13.533   6.657  0.5018 -0.3044 -0.0739
   86CHOL    C2  786  12.641  13.603   6.818  0.1559 -0.5131 -0.1950
   87PNCE   AM1  787  11.723   7.547   7.184  0.4141  0.3053  0.0443
   87PNCE   AM2  788  11.335   7.616   7.246 -0.2573  0.2864  0.0624
   87PNCE   T1A  789  11.629   8.078   7.284  0.2037  0.0181  0.1455
   87PNCE   C2A  790  11.712   8.580   7.360 -0.0134 -0.0364  0.0316
   87PNCE   C3A  791  11.698   9.041   7.301 -0.4338  0.2428 -0.2217
   87PNCE   C1B  792  11.190   7.505   6.882 -0.1009 -0.2149  0.3763
   87PNCE   C2B  793  10.835   7.433   6.646  0.0329 -0.1656 -0.1134
   87PNCE   C3B  794  10.663   7.348   6.346 -0.3813 -0.2212  0.1737
   87PNCE   D4B  795  10.404   7.373   6.064  0.2152 -0.2378  0.1141
   87PNCE   C5B  796  10.014   7.255   6.219  0.1723  0.2529  0.1663
   87PNCE   C6B  797   9.557   7.247   6.228 -0.0815  0.2366  0.1370
   88XCA    COO  798   0.303   8.355   8.254  0.3300 -0.0071 -0.0828
   88XCA     C1  799   0.369   8.473   7.817 -0.0489  0.1712 -0.0250
   88XCA     C2  800   0.708   8.445   7.432  0.0256  0.2298 -0.0177
   88XCA     C3  801   0.967   8.603   7.091 -0.1785  0.3091  0.1413
   88XCA     C4  802   1.067   8.648   6.898  0.2546 -0.1268 -0.0089
   88XCA     C5  803   1.198   8.579   6.517 -0.4302  0.2914  0.0771
   88XCA     C6  804   1.109   8.400   6.064 -0.2121  0.2320  0.1637
   89CHOL   ROH  805   1.067   8.831   7.866  0.0914  0.0694  0.0021
   89CHOL    R1  806   1.049   8.831   7.584  0.1971  0.0232 -0.0056
   89CHOL    R2  807   0.819   8.904   7.449  0.1924 -0.1512 -0.1025
   89CHOL    R3  808   0.986   9.077   7.323  0.1233 -0.0490 -0.0545
   89CHOL    R4  809   0.732   9.101   7.179  0.0488  0.0888  0.1147
   89CHOL    R5  810   0.927   9.058   7.091 -0.0084  0.1563 -0.0355
   89CHOL    C1  811   0.838   9.378   6.903 -0.0996  0.3245  0.2862
   89CHOL    C2  812   0.541   9.436   6.695  0.1370  0.0979  0.0538
   90CHOL   ROH  813   8.405  12.363   8.106  0.0073 -0.0570 -0.1263
   90CHOL    R1  814   8.423  12.301   7.830 -0.0326 -0.1038 -0.1196
   90CHOL    R2  815   8.336  12.061   7.725 -0.0563 -0.1219 -0.0698
   90CHOL    R3  816   8.192  12.223   7.560 -0.0738 -0.1411 -0.0719
   90CHOL    R4  817   8.182  11.960   7.432 -0.1191 -0.1551 -0.0248
   90CHOL    R5  818   8.245  12.147   7.340 -0.1235 -0.1797 -0.0673
   90CHOL    C1  819   7.958  12.053   7.107 -0.1722 -0.1924 -0.0006
   90CHOL    C2  820   8.010  12.013   6.738  0.4044  0.1069 -0.0727
   91CHOL   ROH  821  15.362   6.830   4.547  0.2627  0.0830  0.1940
   91CHOL    R1  822  15.359   6.748   4.818  0.1649  0.1940  0.2275
   91CHOL    R2  823  15.224   6.887   5.014 -0.1144  0.1382  0.0786
   91CHOL    R3  824  15.108   6.646   5.060  0.1037  0.0357  0.0997
   91CHOL    R4  825  15.053   6.804   5.302 -0.1211  0.0446  0.0477
   91CHOL    R5  826  15.146   6.606   5.294  0.0733  0.1295  0.1219
   91CHOL    C1  827  14.844   6.528   5.514  0.0798 -0.1061  0.0494
   91CHOL    C2  828  14.943   6.761   5.851  0.2853 -0.1875  0.0196
   92PNCE   AM1  829  12.156   5.365   3.555  0.2331 -0.1959  0.2796
   92PNCE   AM2  830  12.099   5.031   3.517  0.1847 -0.0594 -0.1521
   92PNCE   T1A  831  12.087   5.792   3.780 -0.2190 -0.1943  0.0591
   92PNCE   C2A  832  11.913   6.169   3.764  0.4562 -0.0759 -0.2286
   92PNCE   C3A  833  11.710   6.539   3.890 -0.0920 -0.1115 -0.0709
   92PNCE   C1B  834  11.808   5.145   3.816  0.2635 -0.1620  0.4189
   92PNCE   C2B  835  12.006   5.068   4.259 -0.0918 -0.1277 -0.0825
   92PNCE   C3B  836  12.314   4.907   4.477 -0.0896  0.0980 -0.2014
   92PNCE   D4B  837  12.490   5.161   4.720  0.3232 -0.0836  0.2647
   92PNCE   C5B  838  12.312   5.417   4.495  0.0822 -0.2322 -0.0245
   92PNCE   C6B  839  12.074   5.695   4.234 -0.5577  0.0304 -0.0060
   93CHOL   ROH  840   6.592   2.376   8.425  0.0052  0.0795 -0.2915
   93CHOL    R1  841   6.862   2.292   8.430  0.0150  0.1002 -0.4437
   93CHOL    R2  842   6.950   2.081   8.585  0.1698  0.2966 -0.2600
   93CHOL    R3  843   7.047   1.989   8.348 -0.0496  0.0041 -0.2430
   93CHOL    R4  844   7.167   1.815   8.550  0.2203  0.3181 -0.1181
   93CHOL    R5  845   7.273   1.927   8.397  0.0250  0.1477 -0.3897
   93CHOL    C1  846   7.385   1.574   8.308  0.0438  0.0562 -0.0196
   93CHOL    C2  847   7.691   1.344   8.155 -0.1734 -0.0096  0.2437
   94XCA    COO  848  15.101   6.958   3.750 -0.1018  0.1846  0.0379
   94XCA     C1  849  15.016   6.823   4.241 -0.1913 -0.0386 -0.0887
   94XCA     C2  850  14.851   6.773   4.626  0.2869  0.1384  0.0332
   94XCA     C3  851  14.775   7.076   4.961 -0.1371  0.0575 -0.3027
   94XCA     C4  852  14.396   7.201   5.179 -0.2240  0.0990 -0.1633
   94XCA     C5  853  14.120   6.897   5.260  0.1831  0.1309  0.2043
   94XCA     C6  854  13.799   6.807   5.386  0.1624  0.7281 -0.3266
   95CHOL   ROH  855  10.266   0.042   5.739 -0.0126 -0.1649  0.1326
   95CHOL    R1  856   9.991  -0.001   5.792  0.0051 -0.1241  0.2578
   95CHOL    R2  857   9.867   0.098   6.017  0.0402  0.2092  0.1317
   95CHOL    R3  858   9.695   0.206   5.837 -0.0192 -0.0971 -0.0010
   95CHOL    R4  859   9.541   0.191   6.087  0.0147  0.1790  0.0536
   95CHOL    R5  860   9.482   0.109   5.893  0.0220 -0.1092  0.1592
   95CHOL    C1  861   9.190   0.346   5.958 -0.0558 -0.1261 -0.1163
   95CHOL    C2  862   8.875   0.396   6.087  0.1387 -0.2694 -0.0605
   96XCA    COO  863  11.624   7.543   6.680  0.0844  0.1894 -0.1095
   96XCA     C1  864  11.630   7.568   6.203  0.1695 -0.0819  0.2589
   96XCA     C2  865  11.343   7.881   5.955 -0.1201 -0.0586  0.1085
   96XCA     C3  866  11.355   8.337   5.776  0.0244  0.0768  0.0230
   96XCA     C4  867  11.120   8.607   5.501  0.1442 -0.2192  0.0071
   96XCA     C5  868  10.765   8.874   5.408  0.0078  0.1243  0.0915
   96XCA     C6  869  10.310   8.868   5.547  0.1028  0.0588 -0.0312
   97PNCE   AM1  870   1.340   2.296   8.875  0.2384  0.2190 -0.3265
   97PNCE   AM2  871   1.187   2.523   9.088 -0.1565  0.0160 -0.0208
   97PNCE   T1A  872   1.162   2.526   8.482  0.1162 -0.0280 -0.0546
   97PNCE   C2A  873   1.214   2.715   8.114  0.1028 -0.0459 -0.2562
   97PNCE   C3A  874   1.523   2.813   7.852 -0.4267 -0.1376  0.0194
   97PNCE   C1B  875   1.578   2.681   8.711 -0.0070  0.0589  0.1557
   97PNCE   C2B  876   1.654   2.583   8.312 -0.3314  0.1036 -0.1390
   97PNCE   C3B  877   1.887   2.239   8.101 -0.1307  0.0538  0.1974
   97PNCE   D4B  878   1.852   2.083   7.679 -0.0914  0.1292  0.3743
   97PNCE   C5B  879   1.836   1.669   7.696  0.1988 -0.3709  0.0879
   97PNCE   C6B  880   1.774   1.479   7.240 -0.0987  0.0037 -0.2133
   98PNCE   AM1  881  12.803  15.194   8.980 -0.0041  0.1151 -0.1939
   98PNCE   AM2  882  12.568  15.175   9.234 -0.2402  0.1366 -0.1168
   98PNCE   T1A  883  12.924  15.160   8.475  0.0232 -0.0973 -0.3563
   98PNCE   C2A  884  12.972  15.408   8.018  0.2715 -0.1830 -0.1443
   98PNCE   C3A  885  12.702  15.475   7.608 -0.0327  0.4162  0.3044
   98PNCE   C1B  886  12.293  15.318   8.933  0.1143 -0.3601 -0.2121
   98PNCE   C2B  887  11.976  15.348   8.688 -0.1254  0.1003  0.0426
   98PNCE   C3B  888  12.001  15.596   8.304  0.1568 -0.3519 -0.0623
   98PNCE   D4B  889  11.872  15.790   7.958 -0.0940  0.0657 -0.0132
   98PNCE   C5B  890  11.484  15.873   7.728  0.1784 -0.1357 -0.0309
   98PNCE   C6B  891  11.178  15.885   7.566 -0.0553  0.1910 -0.1939
   99PNCE   AM1  892   1.526  15.200   4.627  0.3393  0.0815  0.0376
   99PNCE   AM2  893   1.738  15.370   4.623 -0.1491 -0.0222 -0.1356
   99PNCE   T1A  894   1.252  15.105   5.036  0.1150  0.1771 -0.1020
   99PNCE   C2A  895   1.117  15.116   5.469  0.3076 -0.2190 -0.4987
   99PNCE   C3A  896   1.073  15.247   5.804  0.2693  0.0880 -0.0613
   99PNCE   C1B  897   1.572  15.468   4.999 -0.0943  0.1665  0.1855
   99PNCE   C2B  898   1.551  15.322   5.463  0.4021  0.0119 -0.1772
   99PNCE   C3B  899   1.708  15.606   5.863 -0.1974  0.1336 -0.0333
   99PNCE   D4B  900   1.564  15.616   6.357 -0.4180  0.1768  0.5122
   99PNCE   C5B  901   1.778  15.366   6.631 -0.0303  0.2843 -0.0011
   99PNCE   C6B  902   2.243  15.345   6.694  0.0334 -0.0171  0.1321
  100CHOL   ROH  903   8.819  14.845   8.883 -0.0898  0.2828  0.0187
  100CHOL    R1  904   8.959  14.766   8.650 -0.0678  0.1673  0.0713
  100CHOL    R2  905   8.845  14.774   8.398 -0.0120  0.1319  0.0476
  100CHOL    R3  906   9.065  14.923   8.339  0.0515  0.0399  0.0461
  100CHOL    R4  907   9.001  14.783   8.090 -0.1860  0.2856 -0.0378
  100CHOL    R5  908   9.193  14.784   8.192 -0.1225  0.0752 -0.1454
  100CHOL    C1  909   9.298  14.929   7.855 -0.2276  0.2887 -0.0891
  100CHOL    C2  910   9.434  14.992   7.466  0.0477  0.0575 -0.1736
  101XCA    COO  911   0.152  15.659   4.709 -0.0302  0.1202  0.2111
  101XCA     C1  912   0.124  15.767   5.293  0.1645 -0.1019 -0.3341
  101XCA     C2  913   0.222  15.734   5.735  0.0140  0.2114  0.1541
  101XCA     C3  914   0.165  15.739   6.145  0.2016  0.0885 -0.0618
  101XCA     C4  915   0.109  15.535   6.598 -0.0766  0.0988  0.1234
  101XCA     C5  916   0.286  15.723   6.957  0.0465 -0.2917 -0.1683
  101XCA     C6  917   0.625  16.146   6.984  0.2123  0.2279 -0.0844
  102PNCE   AM1  918   4.015  12.437   8.119  0.1402  0.3264  0.0544
  102PNCE   AM2  919   3.728  12.696   8.075  0.0916  0.0580 -0.2297
  102PNCE   T1A  920   3.875  12.361   7.685 -0.1360 -0.3048  0.0456
  102PNCE   C2A  921   3.853  12.358   7.226  0.2840  0.0433 -0.1073
  102PNCE   C3A  922   4.089  12.443   6.959 -0.1466  0.0975  0.4040
  102PNCE   C1B  923   4.010  13.079   8.079  0.3404 -0.1295 -0.0809
  102PNCE   C2B  924   4.136  13.451   8.058  0.1778  0.0250 -0.0888
  102PNCE   C3B  925   4.264  13.871   8.150 -0.1082 -0.1557 -0.0138
  102PNCE   D4B  926   4.529  14.217   7.994 -0.3530 -0.0325 -0.0035
  102PNCE   C5B  927   4.906  14.086   8.083 -0.0285  0.2210  0.1366
  102PNCE   C6B  928   5.121  14.062   7.777 -0.0271 -0.0346  0.1709
  103PNCE   AM1  929  13.728   4.152   7.682 -0.1154 -0.1024  0.0212
  103PNCE   AM2  930  13.909   4.341   7.562 -0.0148  0.3857  0.0517
  103PNCE   T1A  931  13.633   3.939   7.268 -0.0538 -0.1378  0.0347
  103PNCE   C2A  932  13.333   3.956   7.014  0.2901  0.0188 -0.0831
  103PNCE   C3A  933  13.057   3.869   6.592 -0.0548 -0.1171  0.1271
  103PNCE   C1B  934  14.279   4.502   7.248  0.0717 -0.0809  0.1163
  103PNCE   C2B  935  14.249   4.520   6.782 -0.4077  0.0304  0.0001
  103PNCE   C3B  936  13.985   4.513   6.481  0.1816  0.0752  0.0589
  103PNCE   D4B  937  13.680   4.481   6.264  0.0708 -0.0353  0.0627
  103PNCE   C5B  938  13.233   4.348   6.267  0.0977 -0.1284  0.0424
  103PNCE   C6B  939  12.947   4.376   5.875  0.0045 -0.2648 -0.2089
  104PNCE   AM1  940   0.829  13.820   8.890  0.1576 -0.1038  0.1482
  104PNCE   AM2  941   0.474  13.808   8.969 -0.1267 -0.3497  0.0780
  104PNCE   T1A  942   0.734  13.827   8.480 -0.0607  0.1235  0.0057
  104PNCE   C2A  943   0.623  14.155   8.181  0.3460 -0.3204 -0.0562
  104PNCE   C3A  944   0.532  14.202   7.697 -0.1876  0.0626 -0.1125
  104PNCE   C1B  945   0.358  13.426   8.645  0.0036  0.0379 -0.1626
  104PNCE   C2B  946   0.431  13.503   8.143  0.1500  0.1802  0.1293
  104PNCE   C3B  947   0.397  13.408   7.665  0.0816 -0.0663  0.0267
  104PNCE   D4B  948   0.389  13.518   7.233 -0.0191  0.0640  0.3794
  104PNCE   C5B  949   0.049  13.432   6.931  0.2077  0.0223  0.1226
  104PNCE   C6B  950  -0.293  13.724   6.689 -0.2231  0.4569 -0.1231
  105CHOL   ROH  951  14.201  10.130   6.767 -0.0690 -0.0551  0.0285
  105CHOL    R1  952  14.185  10.160   6.486 -0.0008 -0.0254  0.0279
  105CHOL    R2  953  14.360  10.319   6.343  0.0659 -0.0531  0.0816
  105CHOL    R3  954  14.398  10.091   6.200  0.0450 -0.0477  0.0668
  105CHOL    R4  955  14.398  10.306   6.000  0.0161 -0.0366  0.0751
  105CHOL    R5  956  14.274  10.127   5.998  0.0147 -0.0377  0.0857
  105CHOL    C1  957  14.456  10.084   5.665 -0.0323 -0.0218  0.0573
  105CHOL    C2  958  14.501   9.971   5.341  0.0107 -0.1791 -0.0086
  106PNCE   AM1  959   2.909   1.834   9.398  0.0854 -0.0484 -0.0522
  106PNCE   AM2  960   2.748   2.125   9.416 -0.0318  0.0590 -0.3262
  106PNCE   T1A  961   3.026   1.594   8.930 -0.0189  0.1085 -0.1025
  106PNCE   C2A  962   3.050   1.366   8.502 -0.1122 -0.0157  0.0639
  106PNCE   C3A  963   2.904   1.273   8.144  0.1525 -0.0252  0.1423
  106PNCE   C1B  964   2.617   2.481   9.134  0.0527  0.0408  0.0222
  106PNCE   C2B  965   2.918   2.808   8.981  0.0121  0.1909 -0.0103
  106PNCE   C3B  966   3.172   2.945   8.627  0.4373  0.6258  0.0775
  106PNCE   D4B  967   3.358   3.152   8.211 -0.0931  0.3009 -0.1593
  106PNCE   C5B  968   3.600   2.777   7.932  0.2821  0.0013  0.3424
  106PNCE   C6B  969   3.656   2.444   7.695 -0.4176 -0.1312  0.0187
  107PNCE   AM1  970  13.394   4.327   7.377  0.1529 -0.3209 -0.1007
  107PNCE   AM2  971  13.226   4.097   7.579 -0.2476  0.2411  0.0329
  107PNCE   T1A  972  13.191   4.721   7.205 -0.0184 -0.0071 -0.0566
  107PNCE   C2A  973  13.192   5.048   6.927  0.2077  0.2043  0.0907
  107PNCE   C3A  974  13.265   4.957   6.470  0.0485  0.1478  0.1410
  107PNCE   C1B  975  13.223   3.699   7.439  0.0507  0.1033 -0.1523
  107PNCE   C2B  976  13.224   3.285   7.347 -0.1976 -0.0664  0.0479
  107PNCE   C3B  977  13.346   3.015   7.013  0.0035  0.3223 -0.0425
  107PNCE   D4B  978  13.486   2.539   6.823  0.2935 -0.0116  0.0473
  107PNCE   C5B  979  13.863   2.539   6.706 -0.0719 -0.0634  0.0901
  107PNCE   C6B  980  14.214   2.717   6.826  0.0408  0.0549 -0.0317
  108PNCE   AM1  981   8.211  12.453   8.575 -0.1351  0.0332 -0.0722
  108PNCE   AM2  982   8.193  12.122   8.750  0.2283  0.0121  0.1316
  108PNCE   T1A  983   8.671  12.485   8.628  0.0060  0.0888  0.1719
  108PNCE   C2A  984   9.185  12.371   8.722  0.0918  0.2364 -0.0248
  108PNCE   C3A  985   9.605  12.205   8.824 -0.0534  0.4880 -0.2448
  108PNCE   C1B  986   8.217  11.978   8.261  0.2034  0.0786  0.0816
  108PNCE   C2B  987   7.951  12.211   7.947  0.0538 -0.0957  0.3736
  108PNCE   C3B  988   7.693  12.194   7.563  0.2630  0.0163 -0.0244
  108PNCE   D4B  989   7.410  12.055   7.282 -0.3046 -0.2330  0.0609
  108PNCE   C5B  990   7.511  12.180   6.857  0.1256 -0.0290  0.1514
  108PNCE   C6B  991   7.672  12.325   6.423 -0.1947  0.1425 -0.1028
  109CHOL   ROH  992   0.244  14.656   5.088  0.1800 -0.1135  0.1063
  109CHOL    R1  993   0.253  14.698   5.368  0.1620  0.1136  0.0742
  109CHOL    R2  994   0.202  14.943   5.483 -0.2966  0.1056 -0.1017
  109CHOL    R3  995   0.020  14.802   5.627  0.0087 -0.1493  0.0475
  109CHOL    R4  996   0.102  15.021   5.805 -0.4694  0.2533 -0.1890
  109CHOL    R5  997   0.104  14.808   5.852  0.0057  0.2923  0.0498
  109CHOL    C1  998  -0.128  14.933   6.127 -0.2834  0.1001 -0.0998
  109CHOL    C2  999  -0.146  15.165   6.445 -0.1084 -0.0737  0.0371
  110CHOL   ROH 1000   3.321   6.115   5.280 -0.0599  0.0003  0.0205
  110CHOL    R1 1001   3.372   6.178   5.551 -0.0542 -0.1426  0.0534
  110CHOL    R2 1002   3.344   6.435   5.652  0.2099 -0.1429  0.1261
  110CHOL    R3 1003   3.182   6.312   5.832  0.0261 -0.0161  0.0497
  110CHOL    R4 1004   3.321   6.518   5.986  0.0761 -0.0803  0.1019
  110CHOL    R5 1005   3.310   6.306   6.034 -0.0881 -0.0717  0.1247
  110CHOL    C1 1006   3.154   6.452   6.350 -0.1743  0.0753  0.0161
  110CHOL    C2 1007   3.198   6.488   6.786  0.3345  0.0160  0.3591
  111PNCE   AM1 1008   5.556   9.539   8.736 -0.0934 -0.1708  0.2264
  111PNCE   AM2 1009   5.421   9.261   8.604 -0.2186  0.0162  0.0099
  111PNCE   T1A 1010   5.640   9.889   8.337 -0.1313 -0.1304  0.0999
  111PNCE   C2A 1011   5.664   9.908   7.905  0.0050 -0.1417  0.0393
  111PNCE   C3A 1012   5.361   9.974   7.575  0.1160  0.1393  0.0551
  111PNCE   C1B 1013   5.507   9.447   8.186 -0.1762  0.0011  0.1806
  111PNCE   C2B 1014   5.238   9.594   7.820  0.1680  0.2380 -0.2674
  111PNCE   C3B 1015   5.200   9.556   7.347  0.0910  0.2594  0.0509
  111PNCE   D4B 1016   5.006   9.375   7.128 -0.0485 -0.0397 -0.0691
  111PNCE   C5B 1017   4.737   9.574   6.874  0.2312  0.2238  0.1143
  111PNCE   C6B 1018   4.597   9.947   6.679  0.3218 -0.4769  0.2224
  112CHOL   ROH 1019   9.908   2.334   5.580 -0.0765 -0.2771 -0.3774
  112CHOL    R1 1020  10.028   2.287   5.832 -0.1623 -0.0396 -0.2882
  112CHOL    R2 1021  10.117   2.037   5.911 -0.1637  0.0323 -0.0280
  112CHOL    R3 1022  10.350   2.170   5.953 -0.1945  0.0975 -0.0690
  112CHOL    R4 1023  10.346   1.961   6.158 -0.0589  0.0599 -0.1173
  112CHOL    R5 1024  10.375   2.174   6.191 -0.1185  0.0558 -0.0806
  112CHOL    C1 1025  10.699   2.040   6.341 -0.0267  0.1372 -0.2080
  112CHOL    C2 1026  10.928   2.162   6.567 -0.0830  0.1036  0.0154
  113CHOL   ROH 1027   4.956   7.058   4.733  0.1564  0.0844 -0.0001
  113CHOL    R1 1028   5.080   6.996   4.980  0.1193  0.1201  0.0278
  113CHOL    R2 1029   5.064   7.161   5.200  0.0560  0.1354  0.0130
  113CHOL    R3 1030   4.972   6.936   5.322  0.0634  0.1321  0.0121
  113CHOL    R4 1031   5.203   7.018   5.482  0.0717  0.1258  0.0003
  113CHOL    R5 1032   5.170   6.822   5.394  0.0663  0.1294 -0.0029
  113CHOL    C1 1033   5.198   6.724   5.761  0.0877  0.1172 -0.0080
  113CHOL    C2 1034   5.443   6.829   6.038 -0.3255  0.0983 -0.4726
  114XCA    COO 1035  10.670  11.323   4.890 -0.1598 -0.0401  0.1879
  114XCA     C1 1036  10.877  11.157   5.234  0.2981 -0.1115  0.0617
  114XCA     C2 1037  10.970  11.076   5.740  0.0782 -0.1127  0.1621
  114XCA     C3 1038  10.945  11.116   6.151 -0.0021  0.1361 -0.1977
  114XCA     C4 1039  11.082  10.763   6.467  0.0071 -0.0876 -0.0057
  114XCA     C5 1040  11.289  10.423   6.656  0.0202 -0.0028  0.1960
  114XCA     C6 1041  11.607  10.285   6.770  0.1103  0.1132  0.3468
  115XCA    COO 1042  12.207   9.429   3.949  0.1899 -0.2454 -0.0208
  115XCA     C1 1043  12.317   9.090   4.309  0.0540  0.1406  0.0464
  115XCA     C2 1044  12.609   8.921   4.446 -0.0065  0.2589  0.3779
  115XCA     C3 1045  12.652   8.510   4.742  0.1316 -0.2290  0.3053
  115XCA     C4 1046  12.514   8.372   5.135  0.3905  0.0321 -0.3965
  115XCA     C5 1047  12.668   8.461   5.648  0.1771 -0.2119 -0.6697
  115XCA     C6 1048  12.881   8.570   5.986 -0.3855 -0.1008 -0.1787
  116XCA    COO 1049   5.021   1.855   4.906 -0.0436  0.0085 -0.0865
  116XCA     C1 1050   4.674   2.020   5.195 -0.1584 -0.4003 -0.1783
  116XCA     C2 1051   4.453   2.294   5.398 -0.0478  0.0778  0.0265
  116XCA     C3 1052   4.251   2.287   5.754 -0.0191  0.0086 -0.0079
  116XCA     C4 1053   4.106   2.106   6.173  0.0411 -0.0989  0.1382
  116XCA     C5 1054   4.044   2.055   6.555 -0.0462  0.1491  0.2151
  116XCA     C6 1055   4.312   1.983   6.945  0.1669 -0.3584 -0.1352
  117CHOL   ROH 1056   4.237  12.303   8.568 -0.0688 -0.1624  0.0801
  117CHOL    R1 1057   4.365  12.227   8.327  0.2049 -0.0419  0.1840
  117CHOL    R2 1058   4.609  12.097   8.323  0.0496 -0.3555  0.4134
  117CHOL    R3 1059   4.473  11.917   8.172  0.0362 -0.0044 -0.0120
  117CHOL    R4 1060   4.752  11.825   8.166 -0.0731 -0.3928  0.3655
  117CHOL    R5 1061   4.625  11.864   7.993  0.2652 -0.0229  0.1830
  117CHOL    C1 1062   4.709  11.497   7.931 -0.1571 -0.0850 -0.0617
  117CHOL    C2 1063   4.592  11.234   7.761 -0.1203  0.3727  0.2345
  118CHOL   ROH 1064  10.528   8.150   7.613 -0.0723 -0.1460  0.0616
  118CHOL    R1 1065  10.555   7.967   7.398 -0.1461 -0.0853  0.0002
  118CHOL    R2 1066  10.338   7.864   7.262 -0.1897 -0.0293  0.0341
  118CHOL    R3 1067  10.471   7.960   7.045 -0.2472  0.0213  0.0203
  118CHOL    R4 1068  10.335   7.719   6.948  0.0120 -0.1683  0.0944
  118CHOL    R5 1069  10.547   7.764   6.930 -0.0243  0.0453  0.1163
  118CHOL    C1 1070  10.458   7.724   6.562  0.0754 -0.2019  0.1166
  118CHOL    C2 1071  10.225   7.744   6.306  0.1161 -0.0505  0.2275
  119CHOL   ROH 1072  10.641   9.123   5.854  0.0051  0.0692  0.0839
  119CHOL    R1 1073  10.770   9.374   5.847  0.1697 -0.0194 -0.0224
  119CHOL    R2 1074  10.817   9.523   6.074  0.1004  0.1198 -0.1127
  119CHOL    R3 1075  11.074   9.520   5.985  0.1686 -0.0989  0.0740
  119CHOL    R4 1076  11.073   9.711   6.209  0.0682  0.1906 -0.1441
  119CHOL    R5 1077  11.146   9.749   6.006  0.2365 -0.0881 -0.1527
  119CHOL    C1 1078  11.464   9.818   6.204  0.1134  0.0263  0.0129
  119CHOL    C2 1079  11.774   9.965   6.377  0.0152 -0.0749  0.2022
  120PNCE   AM1 1080  14.125   5.743   6.896  0.0964 -0.2790 -0.1348
  120PNCE   AM2 1081  14.297   5.857   7.234 -0.1073  0.1066 -0.5777
  120PNCE   T1A 1082  14.406   5.658   6.609  0.0741 -0.0886  0.0090
  120PNCE   C2A 1083  14.709   5.710   6.353 -0.0194  0.0176  0.1991
  120PNCE   C3A 1084  15.019   5.573   5.976  0.0715 -0.1391 -0.1031
  120PNCE   C1B 1085  14.615   5.947   6.975  0.0561  0.1095 -0.0360
  120PNCE   C2B 1086  14.579   6.148   6.665  0.0813  0.0511  0.0209
  120PNCE   C3B 1087  14.349   6.473   6.445 -0.0046  0.0955  0.1494
  120PNCE   D4B 1088  14.206   6.755   6.079  0.1256  0.3411 -0.3353
  120PNCE   C5B 1089  14.130   6.570   5.723  0.3712  0.0755  0.3861
  120PNCE   C6B 1090  14.431   6.454   5.507 -0.0808 -0.2416 -0.0227
  121CHOL   ROH 1091   8.680  12.679   7.027 -0.0747  0.0233  0.1385
  121CHOL    R1 1092   8.897  12.498   7.021 -0.1154 -0.0251  0.0789
  121CHOL    R2 1093   9.133  12.545   7.157 -0.0667 -0.0794  0.0208
  121CHOL    R3 1094   9.082  12.300   7.263 -0.0986 -0.0686  0.0289
  121CHOL    R4 1095   9.370  12.339   7.301 -0.1169 -0.0685  0.1189
  121CHOL    R5 1096   9.274  12.169   7.205 -0.0829 -0.0755  0.1068
  121CHOL    C1 1097   9.461  11.989   7.484 -0.1760 -0.0521  0.1838
  121CHOL    C2 1098   9.783  11.849   7.474 -0.0152 -0.0454  0.1258
  122XCA    COO 1099   4.146   7.452   8.243 -0.0409 -0.1733  0.0361
  122XCA     C1 1100   3.944   7.801   8.222  0.0909 -0.0261  0.0498
  122XCA     C2 1101   3.982   8.161   7.954 -0.1657 -0.0936  0.0608
  122XCA     C3 1102   4.145   8.178   7.579 -0.1110 -0.0143  0.0246
  122XCA     C4 1103   4.021   8.047   7.099  0.1410 -0.2148 -0.0654
  122XCA     C5 1104   4.006   8.013   6.635 -0.0810  0.1797 -0.2830
  122XCA     C6 1105   3.988   7.749   6.311  0.0630 -0.0756 -0.0403
  123XCA    COO 1106  10.124   5.575   7.752 -0.1917 -0.0819  0.2326
  123XCA     C1 1107   9.874   5.395   7.406 -0.3741  0.3559 -0.1311
  123XCA     C2 1108   9.622   5.528   7.007  0.1102 -0.1506 -0.0534
  123XCA     C3 1109   9.379   5.712   6.720 -0.0280  0.0642 -0.2732
  123XCA     C4 1110   9.231   5.765   6.275  0.0096  0.1764  0.3408
  123XCA     C5 1111   8.913   5.905   6.019 -0.1787  0.0065 -0.0175
  123XCA     C6 1112   8.555   5.861   5.895  0.0273 -0.1834  0.2571
  124PNCE   AM1 1113   8.837   4.220   8.475 -0.3214  0.0915  0.1653
  124PNCE   AM2 1114   8.889   4.366   8.220  0.3119 -0.1946 -0.0344
  124PNCE   T1A 1115   8.997   3.836   8.456 -0.0185  0.0528 -0.0995
  124PNCE   C2A 1116   8.955   3.420   8.394  0.1133  0.2462  0.0211
  124PNCE   C3A 1117   9.056   3.047   8.225  0.1846  0.1936 -0.1801
  124PNCE   C1B 1118   8.820   4.255   7.815  0.1958  0.0954  0.0110
  124PNCE   C2B 1119   8.964   4.182   7.456  0.0508 -0.3931 -0.2843
  124PNCE   C3B 1120   9.143   3.968   7.122  0.0589 -0.1678 -0.2595
  124PNCE   D4B 1121   9.506   3.999   6.911  0.1226 -0.3464  0.0030
  124PNCE   C5B 1122   9.872   3.974   7.099 -0.2256 -0.2418  0.1382
  124PNCE   C6B 1123  10.018   3.761   7.454  0.0872  0.0121 -0.0553
  125CHOL   ROH 1124  10.391   2.048   6.587 -0.0724 -0.0075  0.0213
  125CHOL    R1 1125  10.462   2.025   6.860 -0.0229  0.0094  0.0106
  125CHOL    R2 1126  10.422   1.794   7.006  0.0139  0.0125  0.0311
  125CHOL    R3 1127  10.688   1.820   7.059  0.0219  0.0293 -0.0207
  125CHOL    R4 1128  10.581   1.669   7.286  0.0737  0.0497  0.0132
  125CHOL    R5 1129  10.698   1.852   7.295  0.0667  0.0538 -0.0278
  125CHOL    C1 1130  10.923   1.621   7.499  0.1161  0.0871 -0.0460
  125CHOL    C2 1131  10.985   1.368   7.754  0.2195 -0.0243 -0.3210
  126CHOL   ROH 1132  12.204   9.151   4.734  0.1303 -0.0955 -0.1201
  126CHOL    R1 1133  12.315   9.056   4.977  0.0332  0.0327 -0.0235
  126CHOL    R2 1134  12.505   8.856   4.985 -0.0157 -0.0112  0.1642
  126CHOL    R3 1135  12.646   9.040   5.127 -0.0164  0.0488  0.0869
  126CHOL    R4 1136  12.704   8.785   5.259 -0.0276  0.1112  0.2049
  126CHOL    R5 1137  12.629   8.966   5.354 -0.0254  0.1544  0.1192
  126CHOL    C1 1138  12.952   8.916   5.551 -0.0352  0.2386  0.1559
  126CHOL    C2 1139  13.246   8.789   5.767  0.0710  0.1095  0.0392
  127CHOL   ROH 1140   8.272   5.668   6.178  0.1478 -0.0833  0.1119
  127CHOL    R1 1141   8.022   5.535   6.178  0.2142 -0.2123  0.0199
  127CHOL    R2 1142   7.999   5.261   6.147  0.3768 -0.2490  0.1657
  127CHOL    R3 1143   7.859   5.279   6.379  0.2136 -0.1764  0.0627
  127CHOL    R4 1144   7.773   5.026   6.260  0.2969 -0.2085  0.0895
  127CHOL    R5 1145   7.644   5.188   6.326  0.2520 -0.1914 -0.0532
  127CHOL    C1 1146   7.510   4.905   6.543  0.0972 -0.1168 -0.0516
  127CHOL    C2 1147   7.166   4.942   6.617 -0.0300  0.0595  0.0813
  128PNCE   AM1 1148  14.803   0.357   8.619  0.2530 -0.1929 -0.1813
  128PNCE   AM2 1149  14.993   0.207   8.812  0.2697  0.0082  0.0264
  128PNCE   T1A 1150  15.082   0.222   8.168 -0.0022  0.1252 -0.0400
  128PNCE   C2A 1151  15.008   0.295   7.840  0.1352  0.3028  0.2794
  128PNCE   C3A 1152  14.895   0.188   7.430  0.0972 -0.3210 -0.1245
  128PNCE   C1B 1153  14.773  -0.114   8.446  0.0438 -0.0948 -0.1840
  128PNCE   C2B 1154  14.679  -0.140   7.997 -0.0293 -0.5363 -0.0829
  128PNCE   C3B 1155  14.718  -0.229   7.643 -0.0519 -0.0779 -0.2802
  128PNCE   D4B 1156  14.489  -0.325   7.133  0.1356 -0.1039 -0.1386
  128PNCE   C5B 1157  14.678  -0.613   6.857  0.1591  0.0940  0.1964
  128PNCE   C6B 1158  14.755  -1.005   6.998 -0.1359  0.0532  0.3126
  129PNCE   AM1 1159   5.461   5.071   8.338 -0.0228  0.0213  0.0481
  129PNCE   AM2 1160   5.315   4.793   8.491 -0.2886  0.4390  0.2097
  129PNCE   T1A 1161   5.025   5.151   8.243  0.0017 -0.2763  0.2955
  129PNCE   C2A 1162   4.608   4.892   8.339  0.0535  0.3731 -0.0572
  129PNCE   C3A 1163   4.237   4.571   8.307 -0.2369  0.0942  0.3348
  129PNCE   C1B 1164   5.324   4.620   8.025 -0.1030  0.2313 -0.0487
  129PNCE   C2B 1165   5.388   4.653   7.615  0.1948 -0.1049  0.0321
  129PNCE   C3B 1166   5.442   4.882   7.278  0.0043 -0.1270  0.0996
  129PNCE   D4B 1167   5.445   4.815   6.770  0.1751 -0.1356  0.0991
  129PNCE   C5B 1168   5.585   4.420   6.534 -0.1085 -0.0945 -0.0513
  129PNCE   C6B 1169   5.337   4.117   6.579 -0.0955 -0.2025 -0.0401
  130XCA    COO 1170   7.009   1.509   5.053 -0.2721 -0.3073  0.0915
  130XCA     C1 1171   6.764   1.221   5.413 -0.1963  0.2883 -0.2886
  130XCA     C2 1172   6.528   0.906   5.539 -0.1143 -0.0397 -0.1005
  130XCA     C3 1173   6.449   0.732   5.908 -0.2887  0.2755 -0.2713
  130XCA     C4 1174   6.322   0.317   6.273  0.0415 -0.0098  0.1963
  130XCA     C5 1175   6.589   0.118   6.459 -0.1026  0.0264 -0.1807
  130XCA     C6 1176   6.542  -0.142   6.702 -0.2464 -0.0028  0.0547
  131PNCE   AM1 1177  11.181   2.778   9.197 -0.1948  0.0671 -0.4264
  131PNCE   AM2 1178  10.975   2.418   9.261  0.2056 -0.1814 -0.0211
  131PNCE   T1A 1179  11.329   2.574   8.795 -0.2026 -0.1655  0.0166
  131PNCE   C2A 1180  11.373   2.190   8.677 -0.2295 -0.1382  0.0158
  131PNCE   C3A 1181  11.239   1.880   8.453  0.0313  0.1029 -0.2692
  131PNCE   C1B 1182  10.848   2.415   8.872 -0.1253  0.1560  0.3501
  131PNCE   C2B 1183  10.999   2.319   8.469 -0.0575 -0.1930 -0.2316
  131PNCE   C3B 1184  11.213   2.331   8.123 -0.2907  0.2970 -0.1873
  131PNCE   D4B 1185  11.335   2.216   7.646 -0.2279 -0.2391 -0.0033
  131PNCE   C5B 1186  11.132   2.100   7.254  0.1037  0.0390 -0.1127
  131PNCE   C6B 1187  11.117   1.827   6.936  0.0032 -0.2437 -0.0476
  132PNCE   AM1 1188  15.629   4.101   8.177 -0.3762  0.4077 -0.0466
  132PNCE   AM2 1189  15.869   3.747   8.123 -0.1525 -0.3275  0.1630
  132PNCE   T1A 1190  15.701   4.169   7.810  0.1914 -0.0082  0.0067
  132PNCE   C2A 1191  15.862   4.006   7.489  0.0444  0.1345 -0.0121
  132PNCE   C3A 1192  16.067   4.090   7.175 -0.0990  0.0335 -0.0733
  132PNCE   C1B 1193  15.925   3.510   7.817  0.0885  0.0895  0.4017
  132PNCE   C2B 1194  16.011   3.380   7.376  0.0132 -0.1303 -0.3797
  132PNCE   C3B 1195  15.983   3.506   6.970 -0.1657 -0.1291  0.0783
  132PNCE   D4B 1196  15.773   3.553   6.577  0.0023  0.2558 -0.2178
  132PNCE   C5B 1197  15.450   3.820   6.394  0.2706  0.0098  0.0998
  132PNCE   C6B 1198  15.365   4.004   5.976 -0.0776 -0.3509 -0.0710
  133PNCE   AM1 1199   1.007   7.225   8.670  0.0206 -0.1634  0.2516
  133PNCE   AM2 1200   0.979   7.424   8.447 -0.0014  0.1337  0.3726
  133PNCE   T1A 1201   0.901   6.908   8.384 -0.1222 -0.0438 -0.0748
  133PNCE   C2A 1202   0.828   6.739   7.987  0.0647  0.0334  0.1030
  133PNCE   C3A 1203   0.911   6.690   7.610  0.1965  0.2296 -0.0260
  133PNCE   C1B 1204   0.960   7.687   8.136 -0.0286 -0.0902  0.0818
  133PNCE   C2B 1205   0.822   7.806   7.762  0.2006  0.4054 -0.0640
  133PNCE   C3B 1206   0.441   8.039   7.693  0.0472  0.0694  0.1419
  133PNCE   D4B 1207   0.056   8.254   7.402  0.1926  0.2353  0.2252
  133PNCE   C5B 1208  -0.103   7.912   7.196  0.2290 -0.0853  0.0830
  133PNCE   C6B 1209  -0.338   7.673   7.018 -0.0782 -0.3194  0.2116
  134CHOL   ROH 1210  10.804   0.939   5.972  0.0927  0.0592  0.2670
  134CHOL    R1 1211  10.793   0.700   6.124  0.0364 -0.0713  0.0618
  134CHOL    R2 1212  10.864   0.454   6.020  0.2111  0.0348 -0.0805
  134CHOL    R3 1213  11.028   0.447   6.236  0.0229 -0.0833  0.0610
  134CHOL    R4 1214  11.045   0.178   6.121  0.2793  0.0390 -0.1905
  134CHOL    R5 1215  10.997   0.228   6.327  0.0661 -0.1924 -0.1822
  134CHOL    C1 1216  11.305   0.010   6.383  0.1426 -0.0694 -0.1216
  134CHOL    C2 1217  11.500  -0.266   6.237  0.0160  0.0883  0.2029
  135CHOL   ROH 1218   0.395  12.827   5.822  0.2180 -0.2247 -0.0036
  135CHOL    R1 1219   0.266  12.858   6.072  0.2053 -0.0662 -0.0275
  135CHOL    R2 1220   0.265  13.098   6.210  0.3208 -0.0107 -0.1067
  135CHOL    R3 1221  -0.005  13.062   6.206  0.3026  0.1324 -0.1335
  135CHOL    R4 1222   0.048  13.199   6.460  0.3726 -0.1535 -0.0034
  135CHOL    R5 1223  -0.062  13.013   6.434  0.2792 -0.0660 -0.1866
  135CHOL    C1 1224  -0.331  13.224   6.601  0.3857 -0.1022  0.0315
  135CHOL    C2 1225  -0.535  13.271   6.880 -0.2446  0.1069 -0.0426
  136CHOL   ROH 1226  13.828   3.479   6.340 -0.2717  0.0408  0.0010
  136CHOL    R1 1227  13.923   3.718   6.458 -0.1859  0.0286 -0.0420
  136CHOL    R2 1228  14.154   3.729   6.608 -0.2017 -0.0353 -0.0128
  136CHOL    R3 1229  14.221   3.926   6.433 -0.0934 -0.1039 -0.0498
  136CHOL    R4 1230  14.438   3.925   6.629 -0.2767  0.0573  0.1599
  136CHOL    R5 1231  14.318   4.096   6.569 -0.2722 -0.0067 -0.0402
  136CHOL    C1 1232  14.666   4.223   6.477 -0.2188  0.0468  0.2258
  136CHOL    C2 1233  14.995   4.009   6.438 -0.1769  0.2811 -0.1020
  137XCA    COO 1234   8.923   9.705   4.873  0.2513 -0.4371  0.1570
  137XCA     C1 1235   8.835   9.566   5.264  0.2410 -0.0207  0.3259
  137XCA     C2 1236   8.854   9.633   5.620 -0.0635  0.1313 -0.0567
  137XCA     C3 1237   9.063   9.549   6.038  0.0342  0.2575  0.1609
  137XCA     C4 1238   9.231   9.247   6.194  0.0576 -0.1731  0.0238
  137XCA     C5 1239   9.698   8.927   6.082  0.3624 -0.1059 -0.1257
  137XCA     C6 1240   9.934   8.586   6.199  0.2629  0.1468 -0.0643
  138CHOL   ROH 1241   7.565  15.877   8.395 -0.1528 -0.0088 -0.1203
  138CHOL    R1 1242   7.712  16.030   8.208 -0.0789  0.0171 -0.0392
  138CHOL    R2 1243   7.669  16.014   7.936 -0.0517  0.1430 -0.0422
  138CHOL    R3 1244   7.638  16.283   7.957  0.0436  0.1491  0.0517
  138CHOL    R4 1245   7.744  16.241   7.686 -0.1110  0.1747 -0.0328
  138CHOL    R5 1246   7.826  16.374   7.839  0.0190  0.1136 -0.0320
  138CHOL    C1 1247   7.758  16.627   7.561 -0.0561  0.1988  0.0607
  138CHOL    C2 1248   7.591  16.832   7.233 -0.0799  0.1401  0.3847
  139PNCE   AM1 1249   5.024   6.351   8.358 -0.2862 -0.0661  0.1306
  139PNCE   AM2 1250   5.350   6.363   8.283  0.0722 -0.1351 -0.2249
  139PNCE   T1A 1251   5.026   6.597   8.013 -0.0773 -0.0869  0.1418
  139PNCE   C2A 1252   4.957   6.628   7.616 -0.3858  0.1875  0.0668
  139PNCE   C3A 1253   4.642   6.720   7.407  0.0836 -0.1416 -0.0297
  139PNCE   C1B 1254   5.631   6.234   8.016 -0.1680  0.3068  0.0463
  139PNCE   C2B 1255   5.649   6.130   7.527 -0.0663  0.0036 -0.4503
  139PNCE   C3B 1256   5.557   6.157   7.004 -0.0371 -0.3060  0.2731
  139PNCE   D4B 1257   5.394   6.416   6.684  0.1367  0.2022 -0.2368
  139PNCE   C5B 1258   5.521   6.737   6.838  0.2281 -0.2826  0.0707
  139PNCE   C6B 1259   5.880   6.806   6.796 -0.1971  0.1390  0.1174
  140PNCE   AM1 1260   0.443   2.500   8.634  0.3826 -0.1150  0.0773
  140PNCE   AM2 1261   0.798   2.343   8.840  0.0511  0.2505 -0.3062
  140PNCE   T1A 1262   0.517   2.761   8.273  0.0631 -0.4060  0.3236
  140PNCE   C2A 1263   0.454   2.719   7.863 -0.0238  0.1275 -0.4554
  140PNCE   C3A 1264   0.496   2.633   7.405 -0.1083  0.4469  0.1229
  140PNCE   C1B 1265   0.781   2.168   8.433 -0.2454 -0.1369  0.2321
  140PNCE   C2B 1266   0.793   2.413   8.053 -0.1937 -0.1869  0.0002
  140PNCE   C3B 1267   0.973   2.526   7.665  0.2472 -0.2135 -0.2867
  140PNCE   D4B 1268   0.950   2.497   7.259  0.1070  0.2143  0.0751
  140PNCE   C5B 1269   0.921   2.223   7.277  0.0869  0.2560  0.1097
  140PNCE   C6B 1270   0.854   1.813   7.389 -0.0722 -0.0731 -0.0796
  141CHOL   ROH 1271  12.089  13.056   8.424 -0.0420 -0.1490 -0.1197
  141CHOL    R1 1272  12.109  13.034   8.143 -0.0102 -0.0594 -0.1251
  141CHOL    R2 1273  11.902  13.104   7.973 -0.0297 -0.1027 -0.1216
  141CHOL    R3 1274  12.093  13.260   7.858 -0.0893  0.0164 -0.0604
  141CHOL    R4 1275  11.900  13.208   7.644 -0.0708  0.0383 -0.0773
  141CHOL    R5 1276  12.115  13.173   7.636 -0.0600  0.1206 -0.0969
  141CHOL    C1 1277  12.078  13.416   7.344 -0.1507  0.2320  0.0059
  141CHOL    C2 1278  12.176  13.286   6.990 -0.1558 -0.1039 -0.5448
  142CHOL   ROH 1279  13.327   9.774   8.199 -0.0857  0.0976  0.0848
  142CHOL    R1 1280  13.291   9.777   7.918 -0.1170  0.0324  0.0876
  142CHOL    R2 1281  13.041   9.789   7.800 -0.1278  0.1020  0.1125
  142CHOL    R3 1282  13.148  10.004   7.673 -0.0517  0.0228  0.0415
  142CHOL    R4 1283  12.954   9.895   7.483  0.0144 -0.0486  0.0221
  142CHOL    R5 1284  13.164   9.936   7.444  0.0320 -0.0951  0.0837
  142CHOL    C1 1285  13.004  10.158   7.179  0.1685 -0.2107 -0.0972
  142CHOL    C2 1286  13.023   9.942   6.869  0.0035  0.0060 -0.3856
  143CHOL   ROH 1287  13.723  14.637   8.589  0.2168 -0.1931 -0.0228
  143CHOL    R1 1288  13.804  14.876   8.460  0.1971 -0.1635  0.0192
  143CHOL    R2 1289  14.001  14.881   8.266  0.0914 -0.1352 -0.0895
  143CHOL    R3 1290  13.808  15.006   8.120  0.0354 -0.0404  0.0635
  143CHOL    R4 1291  14.037  14.985   7.939 -0.1269 -0.1739 -0.1274
  143CHOL    R5 1292  13.928  15.166   7.989  0.0123 -0.1124 -0.0455
  143CHOL    C1 1293  13.878  15.162   7.611 -0.3066 -0.1073 -0.0059
  143CHOL    C2 1294  13.971  15.465   7.292 -0.1206  0.2535  0.1891
  144PNCE   AM1 1295  14.713   6.174   7.454 -0.0378 -0.0444  0.0968
  144PNCE   AM2 1296  14.359   6.383   7.490 -0.0221  0.0410  0.3773
  144PNCE   T1A 1297  15.151   6.185   7.274 -0.1149  0.0380 -0.0966
  144PNCE   C2A 1298  15.519   6.529   7.186 -0.4065 -0.0440 -0.0265
  144PNCE   C3A 1299  15.629   6.815   6.874 -0.0257 -0.1939 -0.0353
  144PNCE   C1B 1300  14.500   6.505   7.134  0.0260 -0.1581 -0.1496
  144PNCE   C2B 1301  14.556   6.724   6.769 -0.2919  0.1683 -0.2615
  144PNCE   C3B 1302  14.608   6.864   6.426 -0.1342 -0.0583 -0.3904
  144PNCE   D4B 1303  14.586   7.134   6.188 -0.1960  0.0525  0.1750
  144PNCE   C5B 1304  14.337   7.506   6.260 -0.0796 -0.1372 -0.1559
  144PNCE   C6B 1305  14.283   7.598   6.622 -0.3078  0.2751  0.0140
  145PNCE   AM1 1306   2.551   8.387   8.631  0.1023 -0.1873 -0.2679
  145PNCE   AM2 1307   2.437   8.695   8.692  0.1980 -0.2143  0.1002
  145PNCE   T1A 1308   2.805   8.436   8.179 -0.0838 -0.0806 -0.0509
  145PNCE   C2A 1309   3.265   8.494   8.138  0.0712 -0.1046  0.0382
  145PNCE   C3A 1310   3.495   8.513   7.843  0.2149 -0.2522 -0.5407
  145PNCE   C1B 1311   2.533   8.848   8.203  0.0660  0.0946 -0.0193
  145PNCE   C2B 1312   2.584   9.206   7.901  0.2459  0.0242 -0.1047
  145PNCE   C3B 1313   2.553   9.184   7.483  0.0663 -0.0908 -0.1532
  145PNCE   D4B 1314   2.730   9.168   7.067  0.0874 -0.2737  0.1028
  145PNCE   C5B 1315   3.188   9.055   6.956  0.1915 -0.0047 -0.0051
  145PNCE   C6B 1316   3.630   8.978   6.944  0.1881  0.1590  0.1861
  146CHOL   ROH 1317  14.533   5.440   7.053 -0.2121  0.4669 -0.2597
  146CHOL    R1 1318  14.636   5.319   6.819 -0.1861  0.3005 -0.1637
  146CHOL    R2 1319  14.876   5.394   6.706 -0.0885  0.0983 -0.0921
  146CHOL    R3 1320  14.932   5.129   6.728 -0.2658  0.0700  0.0452
  146CHOL    R4 1321  15.099   5.222   6.505 -0.0494 -0.1100  0.1242
  146CHOL    R5 1322  14.959   5.055   6.502 -0.1515 -0.0268  0.0879
  146CHOL    C1 1323  15.281   4.873   6.409 -0.1931 -0.2578  0.3790
  146CHOL    C2 1324  15.437   4.998   6.030 -0.0978  0.2124 -0.0997
  147XCA    COO 1325   6.819   6.120   4.000 -0.4162  0.0549 -0.1887
  147XCA     C1 1326   6.838   6.017   4.483 -0.0193  0.0263  0.2671
  147XCA     C2 1327   6.529   5.901   4.724 -0.3180  0.1668  0.3658
  147XCA     C3 1328   6.708   5.993   5.102 -0.0053 -0.0827 -0.2059
  147XCA     C4 1329   6.703   5.928   5.553 -0.2072 -0.2135 -0.2460
  147XCA     C5 1330   6.764   5.733   6.011  0.1603 -0.0164  0.2353
  147XCA     C6 1331   6.470   5.655   6.348 -0.0341 -0.0279 -0.2868
  148PNCE   AM1 1332   1.652   4.015   4.368  0.2643 -0.0777  0.1050
  148PNCE   AM2 1333   2.037   3.935   4.503  0.1439  0.0041 -0.4301
  148PNCE   T1A 1334   1.738   4.190   4.836  0.3008  0.0912  0.1523
  148PNCE   C2A 1335   1.756   4.248   5.251 -0.1493 -0.0288 -0.0283
  148PNCE   C3A 1336   1.496   4.626   5.526 -0.0843  0.0878  0.1033
  148PNCE   C1B 1337   2.194   4.147   4.933 -0.0517 -0.0815  0.1580
  148PNCE   C2B 1338   2.327   4.381   5.278  0.1432 -0.1728  0.0846
  148PNCE   C3B 1339   2.056   4.387   5.708  0.2533 -0.0072 -0.1945
  148PNCE   D4B 1340   2.144   4.400   6.106  0.0662 -0.3595 -0.3598
  148PNCE   C5B 1341   2.467   4.186   6.344 -0.3128  0.0856  0.0800
  148PNCE   C6B 1342   2.735   3.989   6.598 -0.0797  0.0364 -0.3651
  149PNCE   AM1 1343  11.584   6.675   6.868 -0.3706 -0.1863 -0.1538
  149PNCE   AM2 1344  11.935   6.575   7.006  0.0845 -0.1275  0.1294
  149PNCE   T1A 1345  11.429   6.683   6.491  0.3314  0.1227  0.1454
  149PNCE   C2A 1346  11.403   6.664   5.983 -0.1143 -0.2198 -0.0117
  149PNCE   C3A 1347  11.464   6.366   5.670  0.2037  0.1288 -0.0516
  149PNCE   C1B 1348  11.896   6.459   6.513  0.1679 -0.0116 -0.5536
  149PNCE   C2B 1349  11.846   6.404   6.075 -0.1350 -0.1368  0.2680
  149PNCE   C3B 1350  11.831   6.033   5.770  0.2912 -0.3135 -0.1438
  149PNCE   D4B 1351  11.449   5.920   5.482  0.2073 -0.1306 -0.1175
  149PNCE   C5B 1352  11.066   5.718   5.390 -0.0278 -0.1815  0.0140
  149PNCE   C6B 1353  10.804   5.401   5.262 -0.0189 -0.0948  0.2357
  150XCA    COO 1354   6.166  10.223   8.470  0.3130 -0.2076  0.0057
  150XCA     C1 1355   6.368  10.264   8.057 -0.0943 -0.3366 -0.0017
  150XCA     C2 1356   6.526  10.499   7.834  0.1133  0.1875  0.1930
  150XCA     C3 1357   6.853  10.583   7.537 -0.0168 -0.2634 -0.2786
  150XCA     C4 1358   6.913  10.668   7.054  0.0791 -0.4282 -0.0615
  150XCA     C5 1359   7.211  10.769   6.686  0.0952  0.1650 -0.1668
  150XCA     C6 1360   7.408  10.903   6.269  0.3274 -0.0053  0.1250
  151PNCE   AM1 1361  15.399   8.068   7.897 -0.0582 -0.0084 -0.0772
  151PNCE   AM2 1362  15.029   7.945   7.878 -0.2439  0.0087 -0.2636
  151PNCE   T1A 1363  15.256   8.443   8.002 -0.1347  0.2064  0.3411
  151PNCE   C2A 1364  15.016   8.801   8.224 -0.0101 -0.1325 -0.0018
  151PNCE   C3A 1365  15.214   9.010   8.526  0.5595  0.2347 -0.3163
  151PNCE   C1B 1366  14.824   7.871   7.469  0.1372 -0.3623  0.0360
  151PNCE   C2B 1367  14.625   7.800   7.047 -0.1193  0.3998 -0.2891
  151PNCE   C3B 1368  14.723   7.946   6.610  0.1682  0.1488  0.0806
  151PNCE   D4B 1369  14.978   8.194   6.327 -0.1208 -0.3977  0.1194
  151PNCE   C5B 1370  14.758   8.498   6.262 -0.1593 -0.2180 -0.0048
  151PNCE   C6B 1371  14.463   8.800   6.309 -0.1399  0.2338  0.0774
  152PNCE   AM1 1372   3.507  13.807   8.724 -0.1623 -0.0333 -0.2379
  152PNCE   AM2 1373   3.246  13.859   8.464  0.0842  0.2707  0.1672
  152PNCE   T1A 1374   3.873  14.100   8.657 -0.0051  0.0926  0.3380
  152PNCE   C2A 1375   4.279  14.268   8.525  0.1410  0.2640 -0.3113
  152PNCE   C3A 1376   4.666  14.495   8.419  0.3440  0.0715 -0.1216
  152PNCE   C1B 1377   3.244  14.262   8.241 -0.0655  0.0153 -0.0210
  152PNCE   C2B 1378   3.405  14.312   7.848 -0.1246  0.1632 -0.3518
  152PNCE   C3B 1379   3.787  14.372   7.524 -0.2434  0.1209  0.1525
  152PNCE   D4B 1380   3.552  14.349   7.071 -0.0219  0.1600  0.2766
  152PNCE   C5B 1381   3.842  14.133   6.770  0.1305 -0.3753  0.3172
  152PNCE   C6B 1382   3.890  13.823   6.533  0.6190  0.1161 -0.1000
  153XCA    COO 1383   3.797  15.040   8.838  0.0040 -0.3268  0.1591
  153XCA     C1 1384   3.533  14.845   8.522  0.0324  0.0476 -0.0745
  153XCA     C2 1385   3.644  14.500   8.244 -0.1097  0.0802 -0.0819
  153XCA     C3 1386   4.035  14.380   8.042  0.0240  0.1484 -0.1823
  153XCA     C4 1387   4.251  14.365   7.624 -0.0542  0.0899 -0.1875
  153XCA     C5 1388   4.443  14.412   7.186 -0.1627 -0.1603 -0.2134
  153XCA     C6 1389   4.550  14.357   6.763  0.2884  0.2193  0.1209
  154CHOL   ROH 1390   8.285  13.234   8.003  0.0001  0.1088 -0.1955
  154CHOL    R1 1391   8.297  13.477   7.858  0.0066  0.1007 -0.2094
  154CHOL    R2 1392   8.534  13.584   7.767  0.0113  0.0941 -0.2091
  154CHOL    R3 1393   8.406  13.582   7.527  0.0176  0.0798 -0.2120
  154CHOL    R4 1394   8.655  13.729   7.477 -0.0138  0.1361 -0.1982
  154CHOL    R5 1395   8.453  13.797   7.433 -0.0269  0.0946 -0.1991
  154CHOL    C1 1396   8.606  13.811   7.083 -0.0223  0.1472 -0.1946
  154CHOL    C2 1397   8.702  14.003   6.741 -0.2330 -0.0944  0.0344
  155PNCE   AM1 1398  12.328   2.685   8.702 -0.3275  0.2379 -0.3858
  155PNCE   AM2 1399  12.089   2.884   8.718  0.0266  0.3219  0.0747
  155PNCE   T1A 1400  12.311   2.382   8.372  0.2176  0.2261 -0.3926
  155PNCE   C2A 1401  12.134   2.098   8.167  0.2071  0.0560 -0.1834
  155PNCE   C3A 1402  11.664   2.043   8.055  0.1222  0.1949  0.0811
  155PNCE   C1B 1403  12.056   2.792   8.276  0.0160 -0.1794  0.1645
  155PNCE   C2B 1404  12.318   2.647   7.800  0.1712  0.0675 -0.1161
  155PNCE   C3B 1405  12.592   2.868   7.510  0.0196  0.5116 -0.1683
  155PNCE   D4B 1406  12.697   2.986   7.082  0.2547  0.0194  0.3020
  155PNCE   C5B 1407  12.496   3.075   6.785 -0.0609 -0.0268 -0.0373
  155PNCE   C6B 1408  12.233   3.278   6.489 -0.1649 -0.0845 -0.0304
  156PNCE   AM1 1409   3.305  12.063   8.785 -0.1895 -0.2343  0.2301
  156PNCE   AM2 1410   3.578  11.936   8.855 -0.2650  0.0316 -0.0646
  156PNCE   T1A 1411   3.446  11.810   8.289  0.0778  0.3892  0.0812
  156PNCE   C2A 1412   3.281  11.700   7.926  0.0228  0.2618 -0.2267
  156PNCE   C3A 1413   3.321  11.737   7.529  0.3192  0.4226  0.0653
  156PNCE   C1B 1414   3.959  11.939   8.490  0.0545 -0.0240  0.1531
  156PNCE   C2B 1415   3.939  11.854   8.063  0.1499  0.1484  0.1196
  156PNCE   C3B 1416   3.820  11.885   7.625  0.1051 -0.1102 -0.2581
  156PNCE   D4B 1417   3.683  11.865   7.222  0.0229  0.0768 -0.0577
  156PNCE   C5B 1418   3.844  11.934   6.846 -0.2205 -0.2818 -0.2986
  156PNCE   C6B 1419   4.205  12.148   6.595  0.0691  0.0281 -0.2031
  157CHOL   ROH 1420  10.118   6.252   6.937 -0.3911 -0.2010  0.0470
  157CHOL    R1 1421  10.005   6.136   6.705 -0.1798 -0.1569 -0.0803
  157CHOL    R2 1422  10.130   5.935   6.563 -0.1430 -0.2721  0.1159
  157CHOL    R3 1423   9.894   5.805   6.602 -0.2925 -0.0943 -0.1646
  157CHOL    R4 1424   9.963   5.751   6.322  0.1628 -0.3918 -0.0101
  157CHOL    R5 1425   9.775   5.834   6.396  0.0762 -0.2082 -0.4045
  157CHOL    C1 1426   9.644   5.523   6.218  0.2006 -0.2946 -0.3468
  157CHOL    C2 1427   9.570   5.303   5.837  0.1545  0.0491  0.0282
  158XCA    COO 1428   1.931   4.630   4.924  0.0297  0.0958  0.2413
  158XCA     C1 1429   1.988   4.855   5.361  0.1784 -0.0216 -0.3523
  158XCA     C2 1430   1.824   4.878   5.791 -0.2627  0.0837  0.2403
  158XCA     C3 1431   1.653   4.512   5.980 -0.0319  0.2737 -0.1528
  158XCA     C4 1432   1.718   3.997   5.959 -0.0448 -0.2481  0.0837
  158XCA     C5 1433   1.902   3.882   5.608  0.1148 -0.0348 -0.4240
  158XCA     C6 1434   2.179   3.786   5.251 -0.2555 -0.2154 -0.0397
  159PNCE   AM1 1435  13.146   5.212   4.457 -0.0545 -0.0702  0.0882
  159PNCE   AM2 1436  12.889   5.262   4.297  0.1720 -0.0987 -0.0436
  159PNCE   T1A 1437  12.989   5.169   4.859 -0.1651  0.1022  0.1684
  159PNCE   C2A 1438  12.705   5.162   5.149 -0.2836 -0.1232  0.4995
  159PNCE   C3A 1439  12.310   5.252   5.399 -0.0087 -0.0452  0.0985
  159PNCE   C1B 1440  12.811   5.536   4.558  0.0991  0.1127 -0.0721
  159PNCE   C2B 1441  12.551   5.592   4.916 -0.1157 -0.0884 -0.3970
  159PNCE   C3B 1442  12.094   5.575   5.029  0.0432  0.1343  0.0391
  159PNCE   D4B 1443  11.745   5.639   4.820 -0.1074 -0.0796  0.1550
  159PNCE   C5B 1444  11.656   5.911   4.522  0.4819 -0.1929 -0.1846
  159PNCE   C6B 1445  11.539   6.167   4.191 -0.2136  0.2838 -0.2472
  160XCA    COO 1446   0.225  15.163   4.823 -0.1463 -0.0407 -0.1805
  160XCA     C1 1447  -0.008  15.289   5.159 -0.0192 -0.1481  0.0128
  160XCA     C2 1448  -0.081  15.353   5.581  0.0839  0.0529  0.0686
  160XCA     C3 1449  -0.203  15.401   6.033  0.0390 -0.1163 -0.0302
  160XCA     C4 1450  -0.491  15.691   6.116 -0.0086  0.3768  0.1811
  160XCA     C5 1451  -0.667  15.960   6.319  0.2249  0.0391 -0.0696
  160XCA     C6 1452  -0.619  16.327   6.595  0.1978  0.1132  0.1649
  161CHOL   ROH 1453   5.626   0.098   8.504 -0.0341  0.0256  0.1786
  161CHOL    R1 1454   5.638   0.258   8.271 -0.0910 -0.0869  0.0979
  161CHOL    R2 1455   5.520   0.182   8.032 -0.2302 -0.1596  0.1885
  161CHOL    R3 1456   5.399   0.424   8.052 -0.1394 -0.1089  0.1336
  161CHOL    R4 1457   5.335   0.330   7.781 -0.0430 -0.0750  0.0981
  161CHOL    R5 1458   5.425   0.522   7.835  0.0107 -0.1137  0.1485
  161CHOL    C1 1459   5.113   0.645   7.654  0.1512  0.0218 -0.0061
  161CHOL    C2 1460   4.969   1.003   7.544 -0.0020 -0.1167 -0.5218
  162CHOL   ROH 1461  15.659   2.738   4.991 -0.1253 -0.1044  0.0923
  162CHOL    R1 1462  15.569   2.832   5.243  0.2233 -0.0668  0.2080
  162CHOL    R2 1463  15.700   3.031   5.382  0.1751  0.2809 -0.2161
  162CHOL    R3 1464  15.455   3.149   5.382 -0.0479 -0.1512  0.1804
  162CHOL    R4 1465  15.610   3.297   5.584  0.1803  0.4048 -0.3751
  162CHOL    R5 1466  15.415   3.201   5.612  0.3982  0.0924  0.2115
  162CHOL    C1 1467  15.327   3.562   5.701 -0.0260  0.0713 -0.0955
  162CHOL    C2 1468  15.179   3.578   6.094  0.0783  0.1793 -0.3018
  163CHOL   ROH 1469   2.310  12.057   4.428  0.0689 -0.1948 -0.1459
  163CHOL    R1 1470   2.416  11.940   4.663  0.0397 -0.1039 -0.0870
  163CHOL    R2 1471   2.475  12.088   4.889 -0.1007 -0.0343 -0.0953
  163CHOL    R3 1472   2.314  11.906   5.011 -0.0638 -0.0806 -0.1147
  163CHOL    R4 1473   2.519  11.969   5.211 -0.2055  0.1120 -0.0259
  163CHOL    R5 1474   2.463  11.771   5.140 -0.0545  0.0523  0.0176
  163CHOL    C1 1475   2.392  11.729   5.512 -0.2318  0.1537 -0.0038
  163CHOL    C2 1476   2.633  11.624   5.814 -0.2354 -0.0585 -0.2167
  164CHOL   ROH 1477   3.156   9.696   4.513 -0.2892 -0.0562 -0.1021
  164CHOL    R1 1478   3.218   9.493   4.700 -0.3970 -0.0915 -0.1036
  164CHOL    R2 1479   3.362   9.542   4.931 -0.2010 -0.2055 -0.1974
  164CHOL    R3 1480   3.147   9.427   5.051 -0.2589  0.0509 -0.0481
  164CHOL    R4 1481   3.349   9.442   5.262 -0.0945 -0.1858 -0.1871
  164CHOL    R5 1482   3.240   9.264   5.199 -0.3504 -0.0593 -0.1119
  164CHOL    C1 1483   3.139   9.275   5.566 -0.0869  0.0663 -0.0409
  164CHOL    C2 1484   3.364   9.072   5.719 -0.0585  0.0441 -0.1008
  165CHOL   ROH 1485   1.965  14.942   6.583 -0.0924  0.1483  0.0453
  165CHOL    R1 1486   1.853  14.831   6.818 -0.1376  0.0324 -0.0299
  165CHOL    R2 1487   1.704  14.980   6.997 -0.0909 -0.0312  0.0651
  165CHOL    R3 1488   1.519  14.784   6.956 -0.1578  0.0592 -0.0710
  165CHOL    R4 1489   1.456  14.891   7.222 -0.0919 -0.1381  0.0223
  165CHOL    R5 1490   1.492  14.682   7.171 -0.1644 -0.1079 -0.1512
  165CHOL    C1 1491   1.139  14.656   7.314 -0.1552 -0.1157 -0.1303
  165CHOL    C2 1492   1.048  14.706   7.646 -0.1067 -0.0844  0.1081
  166CHOL   ROH 1493   2.244   3.331   5.196  0.0289  0.1934 -0.1356
  166CHOL    R1 1494   2.443   3.305   5.395  0.0037 -0.0689 -0.1436
  166CHOL    R2 1495   2.428   3.433   5.639  0.2243  0.0282 -0.1850
  166CHOL    R3 1496   2.461   3.182   5.737 -0.1666 -0.0011 -0.1075
  166CHOL    R4 1497   2.504   3.358   5.968  0.5011  0.0524 -0.2399
  166CHOL    R5 1498   2.639   3.203   5.896  0.0987 -0.2757 -0.3493
  166CHOL    C1 1499   2.579   3.078   6.251  0.2954  0.0390 -0.1991
  166CHOL    C2 1500   2.651   2.998   6.577 -0.0017 -0.1677  0.0064
  167PNCE   AM1 1501   2.335  12.084   8.959  0.0148 -0.0902 -0.0808
  167PNCE   AM2 1502   2.438  11.698   8.721  0.0877 -0.1042  0.0112
  167PNCE   T1A 1503   2.097  12.047   8.528 -0.1450 -0.2335  0.1321
  167PNCE   C2A 1504   1.839  12.253   8.233 -0.0130 -0.4048  0.0547
  167PNCE   C3A 1505   1.406  12.485   8.293  0.1108 -0.3270  0.1467
  167PNCE   C1B 1506   2.330  11.497   8.408  0.1453 -0.0079 -0.3880
  167PNCE   C2B 1507   2.217  11.356   7.985  0.1043 -0.1087  0.0347
  167PNCE   C3B 1508   2.267  11.473   7.532  0.1406  0.1302  0.0713
  167PNCE   D4B 1509   2.094  11.708   7.234  0.0766  0.0715  0.2321
  167PNCE   C5B 1510   1.706  11.950   7.218 -0.0617  0.0019  0.2437
  167PNCE   C6B 1511   1.374  12.121   7.158 -0.0737 -0.0367 -0.0821
  168CHOL   ROH 1512   6.088   5.815   4.827 -0.1834  0.0873  0.0158
  168CHOL    R1 1513   6.114   5.998   5.041 -0.1806 -0.0028  0.0934
  168CHOL    R2 1514   6.071   5.926   5.305  0.1021 -0.1880  0.0946
  168CHOL    R3 1515   6.321   6.028   5.339  0.0382  0.0272 -0.0595
  168CHOL    R4 1516   6.169   6.125   5.570  0.0990 -0.1080  0.0359
  168CHOL    R5 1517   6.284   6.246   5.431 -0.0916 -0.0056 -0.0341
  168CHOL    C1 1518   6.460   6.336   5.757  0.0372  0.1405 -0.1428
  168CHOL    C2 1519   6.668   6.632   5.957 -0.1237 -0.0842  0.1991
  169XCA    COO 1520   7.683  10.894   8.767 -0.2051 -0.1712  0.1536
  169XCA     C1 1521   7.784  11.244   8.418 -0.0293 -0.5659  0.1330
  169XCA     C2 1522   8.089  11.480   8.358 -0.0577 -0.2378 -0.2558
  169XCA     C3 1523   8.388  11.599   8.047 -0.0078 -0.1425 -0.3546
  169XCA     C4 1524   8.692  11.932   7.997 -0.4191 -0.0391 -0.0996
  169XCA     C5 1525   8.813  12.205   8.189 -0.0746 -0.2075  0.4152
  169XCA     C6 1526   8.908  12.656   8.038 -0.0303 -0.0178  0.4297
  170CHOL   ROH 1527   7.802   1.121   5.910  0.1781 -0.0359 -0.1784
  170CHOL    R1 1528   7.838   1.371   6.037  0.0554  0.0751 -0.3537
  170CHOL    R2 1529   7.999   1.403   6.260 -0.3098  0.2223 -0.0893
  170CHOL    R3 1530   8.117   1.594   6.107  0.0330  0.0191 -0.0871
  170CHOL    R4 1531   8.140   1.694   6.382 -0.4484  0.3202 -0.1624
  170CHOL    R5 1532   8.055   1.801   6.211 -0.0989  0.1567 -0.4388
  170CHOL    C1 1533   8.333   2.043   6.309 -0.2073  0.1864 -0.2029
  170CHOL    C2 1534   8.353   2.223   6.663 -0.1295 -0.1306  0.1148
  171XCA    COO 1535   9.020   0.793   5.577 -0.0352  0.2199  0.1549
  171XCA     C1 1536   8.717   0.928   5.936  0.1126  0.1731 -0.3252
  171XCA     C2 1537   8.644   0.829   6.329  0.0101  0.4052 -0.2336
  171XCA     C3 1538   8.622   0.881   6.769 -0.0488 -0.1780 -0.3150
  171XCA     C4 1539   8.837   1.249   7.027  0.0058  0.1097 -0.2082
  171XCA     C5 1540   8.986   1.382   7.429  0.0303  0.1773  0.2460
  171XCA     C6 1541   9.178   1.667   7.698 -0.0983 -0.0341  0.1883
  172PNCE   AM1 1542  11.919   0.811   8.934 -0.1519 -0.1588  0.0824
  172PNCE   AM2 1543  12.237   0.745   9.066 -0.0953  0.0933 -0.0226
  172PNCE   T1A 1544  12.170   0.670   8.481  0.1558  0.1020 -0.0686
  172PNCE   C2A 1545  12.438   0.657   8.115  0.4292 -0.2166  0.2034
  172PNCE   C3A 1546  12.298   0.736   7.695 -0.3226  0.0182  0.2554
  172PNCE   C1B 1547  12.309   0.404   8.916 -0.1329 -0.2420  0.1136
  172PNCE   C2B 1548  12.589   0.261   8.575  0.3169  0.0596  0.1963
  172PNCE   C3B 1549  12.811   0.376   8.369 -0.0247  0.0496 -0.1406
  172PNCE   D4B 1550  13.279   0.197   8.216 -0.0797  0.1036 -0.3587
  172PNCE   C5B 1551  13.442   0.323   7.779  0.3220 -0.2196  0.1210
  172PNCE   C6B 1552  13.453   0.594   7.458  0.1974  0.0309 -0.0113
  173PNCE   AM1 1553  10.912   5.150   7.499 -0.0249 -0.0844  0.1996
  173PNCE   AM2 1554  10.862   5.433   7.350 -0.3137  0.3074 -0.0900
  173PNCE   T1A 1555  10.659   4.768   7.344  0.1128 -0.0222 -0.2348
  173PNCE   C2A 1556  10.410   4.529   6.994  0.0820  0.2664  0.1027
  173PNCE   C3A 1557  10.467   4.437   6.520 -0.0901  0.0673 -0.0162
  173PNCE   C1B 1558  10.693   5.231   6.962  0.2024 -0.0309 -0.1389
  173PNCE   C2B 1559  10.458   5.015   6.699 -0.2469  0.0941 -0.0024
  173PNCE   C3B 1560  10.322   4.868   6.274 -0.0373 -0.0988 -0.2450
  173PNCE   D4B 1561  10.149   4.958   5.903  0.2684 -0.1545  0.0731
  173PNCE   C5B 1562  10.256   4.738   5.516  0.0979  0.1189 -0.0407
  173PNCE   C6B 1563  10.388   4.388   5.239 -0.1958  0.1477  0.2310
  174CHOL   ROH 1564  12.960   8.150   7.081 -0.1918 -0.0145 -0.0534
  174CHOL    R1 1565  13.043   8.209   6.817  0.0498 -0.0024  0.0232
  174CHOL    R2 1566  12.906   8.385   6.654  0.0862 -0.1436 -0.1603
  174CHOL    R3 1567  13.150   8.505   6.634  0.0174  0.0455  0.0803
  174CHOL    R4 1568  12.990   8.623   6.418  0.2149 -0.2947 -0.2692
  174CHOL    R5 1569  13.185   8.528   6.398  0.3347 -0.1507  0.1019
  174CHOL    C1 1570  13.267   8.875   6.261  0.2254 -0.2052 -0.1068
  174CHOL    C2 1571  13.052   9.195   5.995 -0.0687 -0.2099  0.1189
  175XCA    COO 1572  10.829   7.430   3.663 -0.2921 -0.0972  0.0453
  175XCA     C1 1573  11.084   7.511   4.078 -0.2657 -0.2006 -0.4053
  175XCA     C2 1574  10.903   7.538   4.483 -0.2093 -0.1064 -0.3661
  175XCA     C3 1575  10.938   7.508   4.912  0.3713 -0.0144 -0.1143
  175XCA     C4 1576  11.099   7.309   5.282  0.1924  0.1510 -0.1742
  175XCA     C5 1577  11.339   7.331   5.633 -0.1048 -0.3158 -0.0469
  175XCA     C6 1578  11.585   7.223   5.899  0.2644  0.1273  0.3829
  176CHOL   ROH 1579   1.393   5.763   8.166  0.0775 -0.0180  0.0729
  176CHOL    R1 1580   1.262   5.705   7.922  0.0341  0.0062  0.0895
  176CHOL    R2 1581   1.195   5.900   7.738  0.0270  0.0227  0.1055
  176CHOL    R3 1582   1.335   5.741   7.567 -0.0138  0.0139  0.0812
  176CHOL    R4 1583   1.131   5.867   7.400  0.1155  0.2042  0.0700
  176CHOL    R5 1584   1.171   5.654   7.418 -0.0164  0.1749 -0.0095
  176CHOL    C1 1585   1.225   5.698   7.043  0.1287  0.3017  0.0265
  176CHOL    C2 1586   1.227   5.858   6.622 -0.2226 -0.1736  0.1526
  177CHOL   ROH 1587   4.941   8.118   4.733  0.3113  0.1848  0.1338
  177CHOL    R1 1588   5.075   7.916   4.878  0.2612  0.0688  0.0222
  177CHOL    R2 1589   5.194   7.962   5.124  0.3021 -0.0896  0.0395
  177CHOL    R3 1590   5.038   7.754   5.202  0.2380 -0.0761 -0.0538
  177CHOL    R4 1591   5.261   7.755   5.393  0.1521 -0.1473  0.0324
  177CHOL    R5 1592   5.193   7.586   5.273  0.1741 -0.1132 -0.0165
  177CHOL    C1 1593   5.153   7.440   5.623  0.0045 -0.1682 -0.0592
  177CHOL    C2 1594   5.404   7.268   5.828 -0.3064  0.2188  0.1860
  178CHOL   ROH 1595  14.281   1.533   4.546  0.0870  0.1436 -0.0319
  178CHOL    R1 1596  14.285   1.665   4.796 -0.0218 -0.0085  0.0520
  178CHOL    R2 1597  14.275   1.529   5.036  0.1271 -0.1708 -0.0301
  178CHOL    R3 1598  14.501   1.672   5.089 -0.0038  0.0150  0.0379
  178CHOL    R4 1599  14.417   1.567   5.349  0.0893 -0.1826 -0.0118
  178CHOL    R5 1600  14.458   1.775   5.300 -0.1024 -0.1212  0.0847
  178CHOL    C1 1601  14.711   1.722   5.581 -0.0559 -0.0151  0.0627
  178CHOL    C2 1602  14.972   1.918   5.804  0.0467 -0.2098 -0.2767
  179XCA    COO 1603  10.019  15.872   9.037  0.1518 -0.1996  0.1748
  179XCA     C1 1604  10.243  15.876   8.777 -0.0044  0.2361  0.1677
  179XCA     C2 1605  10.477  15.888   8.387  0.0828  0.2694  0.0099
  179XCA     C3 1606  10.451  15.913   8.016  0.0762  0.0558 -0.0020
  179XCA     C4 1607  10.718  16.086   7.593 -0.1582 -0.0793  0.1476
  179XCA     C5 1608  11.105  16.347   7.453  0.0833  0.2674  0.1602
  179XCA     C6 1609  11.362  16.559   7.110  0.2601 -0.0274 -0.0561
  180XCA    COO 1610   7.394  13.371   4.766  0.0769  0.0132  0.3612
  180XCA     C1 1611   7.250  13.656   5.059  0.0769  0.2546  0.1052
  180XCA     C2 1612   6.897  13.687   5.239  0.1558  0.1327  0.0015
  180XCA     C3 1613   6.717  14.034   5.510 -0.3854 -0.2340  0.2562
  180XCA     C4 1614   7.051  14.284   5.844  0.0768 -0.2336 -0.1407
  180XCA     C5 1615   7.109  14.317   6.192  0.2132 -0.0121  0.0208
  180XCA     C6 1616   6.824  14.297   6.476 -0.0546 -0.2760  0.1569
  181CHOL   ROH 1617   2.846   2.873   5.206  0.0659  0.0204  0.0536
  181CHOL    R1 1618   2.779   2.901   5.480 -0.0449 -0.0675  0.0349
  181CHOL    R2 1619   2.599   2.734   5.608  0.0573 -0.2295 -0.0467
  181CHOL    R3 1620   2.806   2.699   5.781  0.0277 -0.0787  0.0240
  181CHOL    R4 1621   2.567   2.689   5.949 -0.0634 -0.5492 -0.0957
  181CHOL    R5 1622   2.740   2.817   5.978 -0.2465 -0.3200  0.0923
  181CHOL    C1 1623   2.743   2.629   6.310 -0.1615 -0.5938 -0.0578
  181CHOL    C2 1624   2.939   2.611   6.769 -0.0775  0.0690 -0.1606
  182CHOL   ROH 1625  13.615   1.871   8.303 -0.0622  0.3171 -0.0542
  182CHOL    R1 1626  13.568   1.692   8.089 -0.0515  0.2286  0.0168
  182CHOL    R2 1627  13.393   1.750   7.883  0.0009  0.1677 -0.0450
  182CHOL    R3 1628  13.610   1.696   7.728  0.0227  0.0575  0.0230
  182CHOL    R4 1629  13.381   1.678   7.545  0.0679  0.1454 -0.0427
  182CHOL    R5 1630  13.534   1.526   7.577 -0.0096  0.0790  0.0149
  182CHOL    C1 1631  13.577   1.584   7.203  0.1274  0.0289  0.0224
  182CHOL    C2 1632  13.366   1.657   6.899 -0.1893 -0.2879  0.0841
  183PNCE   AM1 1633  11.644   1.511   4.755 -0.0665  0.1552 -0.1764
  183PNCE   AM2 1634  12.002   1.401   5.004 -0.1375 -0.1244  0.0096
  183PNCE   T1A 1635  11.649   1.855   5.065  0.1417 -0.2532  0.3281
  183PNCE   C2A 1636  11.827   1.929   5.412  0.0065 -0.4426 -0.0372
  183PNCE   C3A 1637  12.085   2.139   5.607 -0.2323 -0.0228 -0.1437
  183PNCE   C1B 1638  12.247   1.775   5.123 -0.0475  0.1855 -0.0494
  183PNCE   C2B 1639  12.532   1.833   5.479  0.0697  0.1308  0.0621
  183PNCE   C3B 1640  12.830   1.872   5.878 -0.1061 -0.1707  0.0753
  183PNCE   D4B 1641  13.265   1.977   5.936 -0.2462 -0.1997  0.0010
  183PNCE   C5B 1642  13.317   2.339   6.251  0.0168 -0.0258 -0.1664
  183PNCE   C6B 1643  13.352   2.726   6.365 -0.0181 -0.2021  0.0348
  184PNCE   AM1 1644  11.488  13.512   8.821 -0.2251 -0.0015 -0.3139
  184PNCE   AM2 1645  11.221  13.295   8.616 -0.1427 -0.1136 -0.2098
  184PNCE   T1A 1646  11.449  13.674   8.472 -0.1240  0.2775 -0.1508
  184PNCE   C2A 1647  11.587  13.967   8.226 -0.2822  0.1851  0.1267
  184PNCE   C3A 1648  11.508  13.932   7.777  0.1281 -0.3675  0.2936
  184PNCE   C1B 1649  11.099  13.428   8.151 -0.3232  0.1317 -0.1230
  184PNCE   C2B 1650  11.305  13.323   7.789  0.0510  0.0788  0.1665
  184PNCE   C3B 1651  11.231  13.260   7.401 -0.2382  0.0828  0.1570
  184PNCE   D4B 1652  10.948  13.488   7.104  0.0275  0.0503  0.0657
  184PNCE   C5B 1653  10.663  13.135   7.018 -0.0229 -0.0562  0.1198
  184PNCE   C6B 1654  10.276  12.801   7.038  0.0447  0.2375  0.2227
  185PNCE   AM1 1655   9.414   8.067   8.232 -0.2098 -0.0030  0.0394
  185PNCE   AM2 1656   9.019   8.069   8.327  0.0497  0.0354 -0.1567
  185PNCE   T1A 1657   9.607   8.097   7.787  0.3432 -0.3526 -0.0089
  185PNCE   C2A 1658   9.759   8.224   7.419 -0.1523  0.1515 -0.1761
  185PNCE   C3A 1659   9.535   8.458   7.124 -0.0671  0.1342 -0.0673
  185PNCE   C1B 1660   8.495   7.979   8.313  0.0870  0.1662 -0.0370
  185PNCE   C2B 1661   8.287   8.031   7.906  0.1035  0.1878  0.2031
  185PNCE   C3B 1662   8.201   7.752   7.572  0.0596  0.2353 -0.3551
  185PNCE   D4B 1663   8.340   7.552   7.189  0.3047 -0.0367 -0.3264
  185PNCE   C5B 1664   8.693   7.252   7.143 -0.1829  0.2950 -0.0550
  185PNCE   C6B 1665   8.922   6.818   7.152  0.5497 -0.2089  0.3330
  186PNCE   AM1 1666  15.870  15.003   8.624 -0.1196 -0.0778  0.3219
  186PNCE   AM2 1667  16.177  15.135   8.568 -0.1891  0.2161  0.4162
  186PNCE   T1A 1668  15.769  14.895   8.252 -0.0106 -0.2043 -0.0703
  186PNCE   C2A 1669  15.937  14.834   7.800 -0.1319 -0.1379 -0.3097
  186PNCE   C3A 1670  16.087  14.914   7.431 -0.1540 -0.4420  0.2401
  186PNCE   C1B 1671  16.289  14.922   8.190 -0.2541 -0.3615 -0.1547
  186PNCE   C2B 1672  16.415  14.753   7.759 -0.1568 -0.1441  0.1802
  186PNCE   C3B 1673  16.488  14.583   7.377 -0.2780 -0.0173 -0.0074
  186PNCE   D4B 1674  16.365  14.618   6.919  0.2213  0.0524  0.3709
  186PNCE   C5B 1675  16.183  14.241   6.753  0.1356  0.1285  0.0048
  186PNCE   C6B 1676  16.203  13.789   6.725  0.1489 -0.4142  0.1652
  187PNCE   AM1 1677   4.374  10.734   8.934  0.0845 -0.0676  0.0149
  187PNCE   AM2 1678   4.746  10.822   8.849  0.2844 -0.2354 -0.2180
  187PNCE   T1A 1679   4.376  11.086   8.659  0.0780 -0.0181  0.0240
  187PNCE   C2A 1680   4.212  11.501   8.654 -0.3133 -0.0878  0.0916
  187PNCE   C3A 1681   4.198  11.954   8.897 -0.2260  0.1564 -0.0585
  187PNCE   C1B 1682   4.895  10.976   8.415 -0.1119  0.0741  0.0011
  187PNCE   C2B 1683   4.978  11.081   8.003 -0.0005 -0.0175  0.2511
  187PNCE   C3B 1684   5.040  11.169   7.566  0.1738 -0.3197 -0.0065
  187PNCE   D4B 1685   5.461  11.390   7.332  0.2163  0.2589 -0.3060
  187PNCE   C5B 1686   5.275  11.721   7.130 -0.2556 -0.2094 -0.3131
  187PNCE   C6B 1687   5.404  12.098   6.830 -0.0105 -0.0490 -0.0072
  188XCA    COO 1688   4.434  11.209   4.418 -0.2954 -0.0856 -0.4056
  188XCA     C1 1689   4.142  11.230   4.737 -0.0960 -0.1131  0.2464
  188XCA     C2 1690   4.144  11.427   5.107  0.1294 -0.3332  0.4284
  188XCA     C3 1691   4.156  11.701   5.338 -0.0318  0.1124 -0.3009
  188XCA     C4 1692   4.273  12.044   5.677 -0.1296  0.2908  0.0732
  188XCA     C5 1693   4.093  12.203   6.099  0.5114 -0.3111 -0.2879
  188XCA     C6 1694   3.789  12.468   6.426  0.0014  0.2168 -0.2094
  189PNCE   AM1 1695   9.558   0.526   9.487 -0.1687 -0.2736  0.2186
  189PNCE   AM2 1696   9.418   0.302   9.242 -0.0951  0.0985 -0.1396
  189PNCE   T1A 1697   9.389   0.814   9.137  0.1417  0.5133  0.1524
  189PNCE   C2A 1698   9.339   0.789   8.716 -0.1218 -0.3618 -0.0808
  189PNCE   C3A 1699   9.348   0.795   8.258 -0.1185 -0.0447 -0.1856
  189PNCE   C1B 1700   9.716   0.471   8.949  0.2038 -0.0544  0.1189
  189PNCE   C2B 1701   9.807   0.650   8.540  0.0052 -0.0742 -0.1487
  189PNCE   C3B 1702   9.935   0.850   8.220 -0.1199  0.3025 -0.0706
  189PNCE   D4B 1703  10.271   0.845   7.974 -0.1581  0.0992  0.2629
  189PNCE   C5B 1704  10.603   1.089   7.788  0.1991 -0.1565 -0.4230
  189PNCE   C6B 1705  10.595   1.237   7.413 -0.1700  0.2481 -0.0754
  190PNCE   AM1 1706  15.368  14.743   8.639  0.2225  0.1006 -0.0772
  190PNCE   AM2 1707  15.395  14.677   9.038 -0.2557  0.0983  0.1624
  190PNCE   T1A 1708  15.416  14.490   8.344 -0.1923  0.0955 -0.1201
  190PNCE   C2A 1709  15.748  14.433   8.048 -0.1951  0.2598 -0.1187
  190PNCE   C3A 1710  16.140  14.453   8.026 -0.1174 -0.0352 -0.0692
  190PNCE   C1B 1711  15.293  14.262   8.805 -0.1327 -0.1396 -0.2087
  190PNCE   C2B 1712  15.049  14.267   8.446  0.3896  0.3270 -0.1407
  190PNCE   C3B 1713  14.965  13.823   8.147 -0.2132  0.0293 -0.3088
  190PNCE   D4B 1714  15.008  13.302   8.171  0.2413 -0.3048  0.0676
  190PNCE   C5B 1715  15.070  13.056   7.789  0.1824 -0.1258  0.2342
  190PNCE   C6B 1716  15.083  13.122   7.409 -0.0988  0.0146 -0.1408
  191CHOL   ROH 1717   8.429  11.099   5.082 -0.1489 -0.1839  0.1993
  191CHOL    R1 1718   8.367  11.156   5.353 -0.0651 -0.0182  0.1845
  191CHOL    R2 1719   8.562  11.202   5.543 -0.0041 -0.0000  0.1167
  191CHOL    R3 1720   8.423  11.432   5.584  0.1007  0.0798  0.0317
  191CHOL    R4 1721   8.571  11.389   5.834 -0.0931 -0.0236  0.1354
  191CHOL    R5 1722   8.356  11.421   5.814 -0.0647  0.1032 -0.0123
  191CHOL    C1 1723   8.446  11.715   6.041 -0.0465  0.0376  0.0663
  191CHOL    C2 1724   8.263  11.736   6.489  0.2081  0.2975 -0.1508
  192CHOL   ROH 1725  12.989   1.232   8.505  0.1276 -0.0765  0.0087
  192CHOL    R1 1726  13.161   1.286   8.286  0.1460 -0.0532  0.0293
  192CHOL    R2 1727  13.290   1.087   8.146  0.1262 -0.0399 -0.0053
  192CHOL    R3 1728  13.171   1.205   7.932  0.1545  0.0208  0.0121
  192CHOL    R4 1729  13.318   0.978   7.819  0.1203  0.0140 -0.0240
  192CHOL    R5 1730  13.333   1.186   7.756  0.1591  0.0244  0.0146
  192CHOL    C1 1731  13.223   1.026   7.427  0.1435  0.1023 -0.0186
  192CHOL    C2 1732  13.221   1.122   6.966  0.1300 -0.3535  0.2177
  193XCA    COO 1733  11.339   2.267   5.047  0.0418 -0.0722 -0.0725
  193XCA     C1 1734  11.357   2.118   5.476 -0.0466 -0.2667  0.1536
  193XCA     C2 1735  11.561   2.113   5.800  0.1453 -0.0885  0.2574
  193XCA     C3 1736  11.883   2.059   6.035  0.1224 -0.1274 -0.3877
  193XCA     C4 1737  12.317   1.985   6.166  0.2783 -0.5350  0.1109
  193XCA     C5 1738  12.660   1.804   6.357 -0.1019 -0.0370 -0.3816
  193XCA     C6 1739  13.065   1.640   6.505 -0.3446 -0.0233  0.4771
  194CHOL   ROH 1740   0.606   9.604   8.354 -0.1329  0.0613  0.2144
  194CHOL    R1 1741   0.551   9.594   8.077 -0.0442  0.0968  0.1951
  194CHOL    R2 1742   0.395   9.396   7.963  0.1232  0.0191  0.0963
  194CHOL    R3 1743   0.255   9.607   7.865  0.0076 -0.0496  0.1120
  194CHOL    R4 1744   0.226   9.397   7.662  0.0719 -0.0697  0.1245
  194CHOL    R5 1745   0.296   9.601   7.629 -0.0292 -0.0379  0.1056
  194CHOL    C1 1746  -0.005   9.596   7.394 -0.0665 -0.1859  0.1558
  194CHOL    C2 1747  -0.308   9.775   7.287  0.3342 -0.1143 -0.1413
  195PNCE   AM1 1748  15.564  12.276   8.772  0.0621  0.0098  0.0757
  195PNCE   AM2 1749  15.459  12.554   8.874  0.3415 -0.2093 -0.0754
  195PNCE   T1A 1750  15.556  12.136   8.296  0.1245 -0.1078 -0.0015
  195PNCE   C2A 1751  15.524  12.171   7.858 -0.2326 -0.0355  0.1802
  195PNCE   C3A 1752  15.546  12.361   7.490  0.0947 -0.2943  0.0969
  195PNCE   C1B 1753  15.466  12.821   8.497 -0.0440 -0.0262  0.1307
  195PNCE   C2B 1754  15.489  13.098   8.143 -0.2557  0.0321 -0.0525
  195PNCE   C3B 1755  15.526  12.985   7.726 -0.1422 -0.1687 -0.3332
  195PNCE   D4B 1756  15.574  12.942   7.222 -0.1475  0.1200 -0.2655
  195PNCE   C5B 1757  15.214  12.707   7.040  0.1110 -0.0490  0.1114
  195PNCE   C6B 1758  14.940  12.918   6.707 -0.1291 -0.3723  0.1009
  196XCA    COO 1759   8.011  15.861   8.596  0.0220 -0.0299 -0.1449
  196XCA     C1 1760   8.414  16.086   8.547  0.1391 -0.2058 -0.0288
  196XCA     C2 1761   8.656  16.281   8.315 -0.2552 -0.0155 -0.0980
  196XCA     C3 1762   8.998  16.425   8.539 -0.2260  0.0300 -0.0518
  196XCA     C4 1763   9.441  16.174   8.617  0.2843  0.3001 -0.0279
  196XCA     C5 1764   9.854  16.069   8.497  0.0450 -0.3479  0.0166
  196XCA     C6 1765  10.196  16.334   8.325  0.0532  0.5000 -0.0010
  197CHOL   ROH 1766  10.969   1.945   5.301  0.1082 -0.0109 -0.1842
  197CHOL    R1 1767  10.931   1.938   5.582  0.0312  0.0270 -0.1931
  197CHOL    R2 1768  11.098   1.796   5.751 -0.0100  0.0551 -0.1264
  197CHOL    R3 1769  11.120   2.036   5.877 -0.0524  0.0742 -0.1556
  197CHOL    R4 1770  11.257   1.846   6.053 -0.0391  0.1188 -0.1215
  197CHOL    R5 1771  11.097   1.983   6.109 -0.0613  0.1028 -0.1511
  197CHOL    C1 1772  11.371   2.100   6.348 -0.0962  0.1739 -0.1462
  197CHOL    C2 1773  11.420   2.192   6.717 -0.0686  0.0287  0.2480
  198CHOL   ROH 1774   4.846   8.660   6.824  0.0273  0.1242  0.0109
  198CHOL    R1 1775   4.661   8.814   6.973  0.1381  0.1424  0.1313
  198CHOL    R2 1776   4.730   9.051   7.096  0.1726  0.2887 -0.1598
  198CHOL    R3 1777   4.519   9.148   6.954 -0.0775  0.0472  0.0342
  198CHOL    R4 1778   4.554   9.338   7.176 -0.0086  0.1565 -0.0729
  198CHOL    R5 1779   4.370   9.234   7.121  0.0239 -0.0327  0.1662
  198CHOL    C1 1780   4.255   9.597   7.089 -0.3487 -0.1473  0.1598
  198CHOL    C2 1781   3.984   9.647   7.255  0.3624 -0.0487  0.0662
  199PNCE   AM1 1782   8.322   2.129   9.347 -0.2167  0.2580  0.2517
  199PNCE   AM2 1783   8.537   1.904   9.573 -0.4786 -0.2934 -0.0158
  199PNCE   T1A 1784   8.382   2.234   8.903  0.0488 -0.0361  0.2661
  199PNCE   C2A 1785   8.232   2.083   8.539  0.0590  0.2808  0.4280
  199PNCE   C3A 1786   8.183   1.694   8.274 -0.0131  0.3288 -0.2055
  199PNCE   C1B 1787   8.734   1.840   9.149 -0.0270 -0.0143 -0.0795
  199PNCE   C2B 1788   9.016   1.479   9.009  0.0117 -0.1550 -0.0229
  199PNCE   C3B 1789   9.352   1.508   8.725  0.3079  0.0727 -0.1342
  199PNCE   D4B 1790   9.560   1.266   8.428  0.0677  0.1264  0.0347
  199PNCE   C5B 1791   9.524   1.208   7.995 -0.1371  0.4028  0.1737
  199PNCE   C6B 1792   9.637   1.251   7.605  0.1864  0.0021  0.1748
  200PNCE   AM1 1793   3.308   0.336   8.911 -0.1318 -0.1254 -0.0098
  200PNCE   AM2 1794   3.013   0.599   8.913  0.3341  0.1736  0.0715
  200PNCE   T1A 1795   3.308   0.279   8.414  0.1250  0.2201 -0.1186
  200PNCE   C2A 1796   3.257   0.479   8.015 -0.1774  0.2007 -0.3138
  200PNCE   C3A 1797   3.342   0.288   7.652  0.1224  0.0118  0.2898
  200PNCE   C1B 1798   3.265   0.840   8.646 -0.0271 -0.1610  0.1183
  200PNCE   C2B 1799   3.444   0.896   8.215 -0.2397  0.1241 -0.0773
  200PNCE   C3B 1800   3.532   0.791   7.725  0.0798 -0.0689 -0.0488
  200PNCE   D4B 1801   3.573   0.693   7.307 -0.0326 -0.1638  0.2583
  200PNCE   C5B 1802   3.294   0.600   6.922  0.0917  0.1722 -0.1243
  200PNCE   C6B 1803   3.203   0.328   6.669  0.1440  0.1008  0.1699
  201CHOL   ROH 1804   0.454   3.645   5.552 -0.1848 -0.0812 -0.1677
  201CHOL    R1 1805   0.507   3.830   5.760 -0.0871 -0.0617 -0.2094
  201CHOL    R2 1806   0.425   4.094   5.749 -0.0675 -0.0556 -0.2089
  201CHOL    R3 1807   0.309   4.034   5.988  0.0194 -0.0176 -0.1565
  201CHOL    R4 1808   0.457   4.284   6.036 -0.1203  0.0910 -0.2985
  201CHOL    R5 1809   0.473   4.099   6.150  0.0151  0.1527 -0.2189
  201CHOL    C1 1810   0.367   4.338   6.427 -0.0695  0.2120 -0.3015
  201CHOL    C2 1811   0.361   4.774   6.381 -0.3463 -0.2045  0.0325
  202CHOL   ROH 1812   2.278   0.873   5.146  0.3165  0.0309 -0.0228
  202CHOL    R1 1813   2.381   0.892   5.409  0.2029 -0.0079  0.0255
  202CHOL    R2 1814   2.257   0.773   5.625  0.0304  0.0744 -0.0193
  202CHOL    R3 1815   2.502   0.661   5.663 -0.0488 -0.0611  0.0970
  202CHOL    R4 1816   2.398   0.704   5.933 -0.0775  0.1310  0.0431
  202CHOL    R5 1817   2.590   0.772   5.856 -0.0214 -0.0294  0.0594
  202CHOL    C1 1818   2.709   0.558   6.148 -0.2148  0.0367  0.1887
  202CHOL    C2 1819   3.011   0.224   6.178  0.4026  0.1732  0.1066
  203CHOL   ROH 1820  11.184  11.059   8.071  0.1859 -0.1274  0.0176
  203CHOL    R1 1821  11.011  11.036   7.848  0.2098 -0.1302 -0.0002
  203CHOL    R2 1822  10.897  11.256   7.725  0.0892 -0.1428  0.0917
  203CHOL    R3 1823  11.010  11.149   7.502  0.1607  0.0201  0.0478
  203CHOL    R4 1824  10.820  11.350   7.402 -0.0782 -0.1581  0.1261
  203CHOL    R5 1825  10.829  11.140   7.344  0.1356 -0.1405  0.0826
  203CHOL    C1 1826  10.880  11.304   7.003 -0.1084 -0.0138  0.1050
  203CHOL    C2 1827  10.941  11.420   6.672  0.0461  0.2113  0.0330
  204PNCE   AM1 1828  12.491  14.907   8.722 -0.2816  0.1092 -0.0425
  204PNCE   AM2 1829  12.485  14.652   8.567 -0.0755  0.2300  0.0767
  204PNCE   T1A 1830  12.382  15.171   8.337 -0.2125 -0.0862 -0.3217
  204PNCE   C2A 1831  12.385  15.144   7.942 -0.2341  0.1760  0.0550
  204PNCE   C3A 1832  12.417  14.931   7.662 -0.0388  0.2281 -0.1140
  204PNCE   C1B 1833  12.258  14.698   8.254  0.0386 -0.1139  0.0610
  204PNCE   C2B 1834  11.996  14.727   7.859 -0.3819 -0.0773  0.0864
  204PNCE   C3B 1835  12.075  14.692   7.389  0.0423  0.0340 -0.2631
  204PNCE   D4B 1836  11.924  14.723   7.047 -0.1637  0.0005  0.2059
  204PNCE   C5B 1837  12.052  15.163   6.928  0.0184  0.0776 -0.1038
  204PNCE   C6B 1838  12.172  15.721   6.874 -0.1670  0.1610 -0.0214
  205CHOL   ROH 1839   8.510  15.070   8.711  0.0225  0.0265  0.0746
  205CHOL    R1 1840   8.520  15.023   8.432 -0.1668  0.1462  0.0465
  205CHOL    R2 1841   8.535  15.228   8.247  0.1066  0.2160  0.1461
  205CHOL    R3 1842   8.753  15.091   8.161 -0.1542 -0.1136 -0.0114
  205CHOL    R4 1843   8.674  15.258   7.933  0.1046  0.2536  0.1484
  205CHOL    R5 1844   8.705  15.042   7.931 -0.2923  0.1850 -0.0546
  205CHOL    C1 1845   8.960  15.146   7.668 -0.1414 -0.0339  0.0020
  205CHOL    C2 1846   8.685  15.147   7.469  0.0941 -0.1848  0.2344
  206XCA    COO 1847   9.519   5.440   7.778 -0.1153  0.0832  0.0410
  206XCA     C1 1848   9.336   5.520   7.413  0.2025  0.2363  0.0344
  206XCA     C2 1849   9.098   5.442   7.060  0.0671  0.1515  0.0589
  206XCA     C3 1850   8.871   5.350   6.669  0.2993 -0.1523 -0.0015
  206XCA     C4 1851   8.697   5.586   6.365  0.2684 -0.2224 -0.0549
  206XCA     C5 1852   8.584   6.024   6.360 -0.0477  0.1101  0.0287
  206XCA     C6 1853   8.386   6.299   6.087 -0.0370 -0.1198  0.0367
  207CHOL   ROH 1854   5.711  14.577   6.729  0.0798  0.0625 -0.0551
  207CHOL    R1 1855   5.981  14.495   6.720  0.0792  0.0547  0.0000
  207CHOL    R2 1856   6.098  14.342   6.918 -0.0127 -0.0894 -0.0573
  207CHOL    R3 1857   6.161  14.179   6.711  0.0656  0.0503 -0.1452
  207CHOL    R4 1858   6.348  14.104   6.924 -0.1543 -0.2406 -0.0459
  207CHOL    R5 1859   6.400  14.161   6.720  0.0507 -0.0947  0.0424
  207CHOL    C1 1860   6.554  13.812   6.731 -0.1633 -0.1976 -0.1218
  207CHOL    C2 1861   6.522  13.431   6.671 -0.0769 -0.0541  0.1604
  208CHOL   ROH 1862  12.666  10.945   4.921  0.0393 -0.1814 -0.1291
  208CHOL    R1 1863  12.682  10.825   5.177 -0.1477 -0.1249 -0.0900
  208CHOL    R2 1864  12.888  10.877   5.353 -0.0382 -0.4216 -0.1288
  208CHOL    R3 1865  12.684  10.939   5.522  0.0787 -0.0096 -0.1264
  208CHOL    R4 1866  12.894  10.830   5.696 -0.1621 -0.5610 -0.1443
  208CHOL    R5 1867  12.687  10.763   5.686 -0.3306 -0.0877 -0.1866
  208CHOL    C1 1868  12.707  10.861   6.054 -0.1245 -0.2554 -0.1511
  208CHOL    C2 1869  12.845  11.122   6.310  0.1420 -0.0965  0.2045
  209PNCE   AM1 1870   5.467  14.589   8.661  0.2856  0.0775  0.0640
  209PNCE   AM2 1871   5.787  14.718   8.685 -0.0109  0.0428  0.0961
  209PNCE   T1A 1872   5.195  14.468   8.297  0.2107  0.2013 -0.2526
  209PNCE   C2A 1873   5.015  14.540   7.891  0.1789 -0.1637 -0.0466
  209PNCE   C3A 1874   4.723  14.436   7.632  0.0938 -0.0477  0.2230
  209PNCE   C1B 1875   5.869  14.555   8.236  0.0881 -0.1502 -0.3447
  209PNCE   C2B 1876   6.057  14.765   7.917 -0.1631 -0.1288  0.0615
  209PNCE   C3B 1877   5.874  14.917   7.516 -0.2200 -0.0450 -0.3610
  209PNCE   D4B 1878   5.930  14.761   7.123  0.0354 -0.0454 -0.1840
  209PNCE   C5B 1879   5.705  14.380   7.154  0.1271  0.1505  0.2426
  209PNCE   C6B 1880   5.351  14.264   6.914  0.0107  0.3388  0.1409
  210CHOL   ROH 1881   6.450   2.019   8.702  0.2322 -0.2152  0.2336
  210CHOL    R1 1882   6.409   1.963   8.428 -0.0057 -0.0658  0.2347
  210CHOL    R2 1883   6.617   1.918   8.251 -0.1443  0.1456 -0.0058
  210CHOL    R3 1884   6.481   1.689   8.201 -0.0814  0.1090  0.0002
  210CHOL    R4 1885   6.626   1.743   7.954  0.1290 -0.0407  0.1093
  210CHOL    R5 1886   6.413   1.708   7.973  0.1238 -0.0409 -0.0678
  210CHOL    C1 1887   6.503   1.425   7.733  0.3473 -0.1836  0.1819
  210CHOL    C2 1888   6.303   1.369   7.343 -0.0047 -0.1920 -0.0243
  211PNCE   AM1 1889   6.597  12.774   8.585  0.0109  0.1674 -0.0675
  211PNCE   AM2 1890   6.624  12.437   8.494 -0.1195  0.0710 -0.3435
  211PNCE   T1A 1891   6.419  12.996   8.261  0.0277  0.2249 -0.1990
  211PNCE   C2A 1892   6.466  12.995   7.866  0.3143 -0.1369 -0.0556
  211PNCE   C3A 1893   6.534  13.235   7.460 -0.1069  0.0068 -0.3331
  211PNCE   C1B 1894   6.529  12.449   8.052  0.2531 -0.0076  0.1129
  211PNCE   C2B 1895   6.506  12.352   7.684 -0.3941  0.0613 -0.0775
  211PNCE   C3B 1896   6.491  12.105   7.325 -0.0156  0.1861 -0.1008
  211PNCE   D4B 1897   6.279  11.838   7.082  0.0182 -0.0583 -0.2971
  211PNCE   C5B 1898   6.498  11.469   6.934  0.1822  0.2489 -0.0766
  211PNCE   C6B 1899   6.575  11.218   6.583  0.1084 -0.3465 -0.0772
  212CHOL   ROH 1900  12.977   9.035   4.329 -0.3511 -0.2001 -0.0601
  212CHOL    R1 1901  13.090   9.038   4.589 -0.2729  0.0080 -0.0938
  212CHOL    R2 1902  12.947   8.965   4.814 -0.1241 -0.0852 -0.0233
  212CHOL    R3 1903  13.156   8.795   4.851  0.0814  0.1597 -0.0385
  212CHOL    R4 1904  13.081   8.879   5.121 -0.1564 -0.1211 -0.0198
  212CHOL    R5 1905  13.280   8.891   5.032 -0.1279  0.1965  0.0833
  212CHOL    C1 1906  13.356   8.670   5.334  0.0178  0.0880 -0.0320
  212CHOL    C2 1907  13.620   8.591   5.501  0.0304 -0.0555  0.1709
  213PNCE   AM1 1908   8.906   8.643   8.257  0.2451  0.0672 -0.2868
  213PNCE   AM2 1909   8.657   8.415   8.140 -0.2949  0.2958  0.0060
  213PNCE   T1A 1910   8.998   8.918   7.933  0.0312 -0.2056 -0.0682
  213PNCE   C2A 1911   9.047   8.901   7.523 -0.4952 -0.1856  0.0579
  213PNCE   C3A 1912   9.098   8.751   7.133  0.1443 -0.0281 -0.0484
  213PNCE   C1B 1913   8.707   8.578   7.714  0.4832  0.1684  0.1628
  213PNCE   C2B 1914   8.642   8.554   7.266  0.1010  0.0061  0.1334
  213PNCE   C3B 1915   8.746   8.539   6.811 -0.0139 -0.2734 -0.1716
  213PNCE   D4B 1916   8.942   8.591   6.348  0.1530  0.0949 -0.0087
  213PNCE   C5B 1917   9.211   8.796   6.084 -0.0828 -0.1598  0.1352
  213PNCE   C6B 1918   9.389   9.064   5.651 -0.1765  0.0191 -0.1418
  214CHOL   ROH 1919   7.233   6.176   7.946  0.0594 -0.2349 -0.0406
  214CHOL    R1 1920   6.969   6.228   7.856  0.0459 -0.0812  0.0917
  214CHOL    R2 1921   6.906   6.255   7.589 -0.0381  0.1317  0.1433
  214CHOL    R3 1922   6.723   6.062   7.646 -0.0955  0.1566  0.0588
  214CHOL    R4 1923   6.672   6.133   7.366  0.3402 -0.1310 -0.1256
  214CHOL    R5 1924   6.526   6.130   7.528  0.0708  0.0152 -0.3387
  214CHOL    C1 1925   6.364   5.881   7.289  0.5067 -0.2605 -0.3615
  214CHOL    C2 1926   6.033   5.909   7.195  0.2603 -0.1164  0.1039
  215CHOL   ROH 1927  10.446   8.077   4.129 -0.1498  0.0903  0.1514
  215CHOL    R1 1928  10.649   7.999   4.310 -0.0473  0.0653  0.0274
  215CHOL    R2 1929  10.796   8.182   4.456 -0.0097  0.0432  0.0192
  215CHOL    R3 1930  10.712   8.032   4.667  0.1184 -0.0444  0.0092
  215CHOL    R4 1931  10.937   8.189   4.772  0.1564 -0.0620 -0.0509
  215CHOL    R5 1932  10.914   7.972   4.782  0.1848 -0.0671 -0.1194
  215CHOL    C1 1933  10.940   8.053   5.154  0.3734 -0.2056 -0.1011
  215CHOL    C2 1934  11.029   7.777   5.378 -0.0642 -0.0243  0.1111
  216PNCE   AM1 1935  13.578  12.855   8.727 -0.3573 -0.0189  0.2002
  216PNCE   AM2 1936  13.391  13.053   8.869  0.0067  0.1387 -0.2164
  216PNCE   T1A 1937  13.487  12.491   8.412 -0.2036 -0.0849  0.1026
  216PNCE   C2A 1938  13.739  12.192   8.163 -0.0273 -0.3078  0.2091
  216PNCE   C3A 1939  14.031  11.966   7.894 -0.2612 -0.0203  0.1364
  216PNCE   C1B 1940  13.413  13.193   8.406  0.2120  0.1620  0.1276
  216PNCE   C2B 1941  13.660  13.187   7.996  0.0346 -0.1247 -0.0913
  216PNCE   C3B 1942  13.639  13.169   7.595  0.1325 -0.2879 -0.3499
  216PNCE   D4B 1943  13.840  13.243   7.159 -0.1932 -0.0031 -0.2464
  216PNCE   C5B 1944  13.574  13.126   6.787 -0.1449 -0.6200 -0.1668
  216PNCE   C6B 1945  13.415  12.740   6.456  0.1417  0.2513  0.0684
  217PNCE   AM1 1946   3.491   6.809   8.137  0.1929 -0.0902  0.0003
  217PNCE   AM2 1947   3.339   6.974   7.862  0.2350  0.0204 -0.0314
  217PNCE   T1A 1948   3.789   6.660   7.827  0.2014 -0.0552 -0.0391
  217PNCE   C2A 1949   4.268   6.748   7.788 -0.1229  0.1128 -0.0557
  217PNCE   C3A 1950   4.521   6.452   7.895  0.0477 -0.2087 -0.0123
  217PNCE   C1B 1951   3.223   7.215   7.493 -0.1484 -0.1626  0.1477
  217PNCE   C2B 1952   3.024   7.345   7.136 -0.1478 -0.1449 -0.2359
  217PNCE   C3B 1953   3.056   7.511   6.634 -0.2766 -0.3921 -0.4088
  217PNCE   D4B 1954   3.256   7.330   6.339 -0.0713  0.0486  0.3246
  217PNCE   C5B 1955   3.176   6.983   6.079  0.1536  0.3088 -0.3311
  217PNCE   C6B 1956   2.872   6.746   5.983 -0.0268 -0.2542  0.0603
  218PNCE   AM1 1957   6.379   3.849   8.469 -0.1974  0.0238  0.0709
  218PNCE   AM2 1958   6.089   4.031   8.420  0.1207  0.2814 -0.0479
  218PNCE   T1A 1959   6.393   3.677   8.082  0.2736 -0.0997  0.1285
  218PNCE   C2A 1960   6.175   3.649   7.732 -0.1772 -0.3077  0.0087
  218PNCE   C3A 1961   5.845   3.839   7.448 -0.4182 -0.0045 -0.0968
  218PNCE   C1B 1962   5.870   4.026   8.080 -0.0400 -0.3212 -0.1955
  218PNCE   C2B 1963   5.792   4.327   7.756  0.0649 -0.0184  0.2670
  218PNCE   C3B 1964   5.632   4.330   7.367  0.1897 -0.1302 -0.1550
  218PNCE   D4B 1965   5.389   4.335   7.034  0.1554 -0.3666  0.1616
  218PNCE   C5B 1966   5.051   4.529   7.107 -0.1567  0.0513 -0.1750
  218PNCE   C6B 1967   4.579   4.708   7.174 -0.0642  0.1950  0.2206
  219CHOL   ROH 1968  12.438   5.871   7.106 -0.0326  0.0747 -0.1794
  219CHOL    R1 1969  12.567   5.884   6.855 -0.0122 -0.0642 -0.1773
  219CHOL    R2 1970  12.686   5.665   6.736 -0.0099 -0.1321 -0.0509
  219CHOL    R3 1971  12.525   5.731   6.527  0.0089 -0.2386 -0.0996
  219CHOL    R4 1972  12.795   5.717   6.413  0.0827  0.1130  0.0173
  219CHOL    R5 1973  12.657   5.885   6.398 -0.1048 -0.0384  0.0176
  219CHOL    C1 1974  12.708   5.809   6.028  0.1542  0.1556  0.0112
  219CHOL    C2 1975  12.915   5.826   5.614  0.0066  0.1494 -0.3999
  220PNCE   AM1 1976   2.794   0.837   9.337  0.2927 -0.0165  0.0759
  220PNCE   AM2 1977   2.586   0.578   9.152  0.0905  0.2299 -0.1111
  220PNCE   T1A 1978   2.810   1.050   8.861 -0.1903  0.1587  0.0390
  220PNCE   C2A 1979   2.450   1.152   8.565 -0.2651  0.1610 -0.0422
  220PNCE   C3A 1980   2.472   0.960   8.154  0.0071  0.0589  0.0821
  220PNCE   C1B 1981   2.600   0.626   8.640 -0.0896 -0.0804  0.0893
  220PNCE   C2B 1982   2.887   0.744   8.253  0.0336  0.2651 -0.1554
  220PNCE   C3B 1983   2.932   0.841   7.848 -0.1830 -0.0460  0.0034
  220PNCE   D4B 1984   3.033   1.019   7.441 -0.1052  0.2863 -0.3657
  220PNCE   C5B 1985   2.858   1.229   7.091 -0.2454 -0.0830 -0.2728
  220PNCE   C6B 1986   2.806   1.342   6.740  0.0094  0.0959  0.0319
  221CHOL   ROH 1987   5.461  12.450   5.036  0.0611 -0.0091 -0.1069
  221CHOL    R1 1988   5.340  12.481   5.289 -0.1030  0.0424 -0.1894
  221CHOL    R2 1989   5.480  12.458   5.526 -0.3264 -0.2954 -0.0774
  221CHOL    R3 1990   5.376  12.704   5.575  0.0058 -0.1574 -0.0465
  221CHOL    R4 1991   5.400  12.578   5.839 -0.2075 -0.2368 -0.0698
  221CHOL    R5 1992   5.220  12.667   5.753 -0.0715  0.0282 -0.0780
  221CHOL    C1 1993   5.255  12.879   6.068  0.1736 -0.0734 -0.0363
  221CHOL    C2 1994   5.223  12.813   6.414 -0.2045 -0.0432  0.1981
  222CHOL   ROH 1995   6.657   8.013   6.333  0.0295 -0.1230  0.0185
  222CHOL    R1 1996   6.480   7.880   6.509  0.0046 -0.2306 -0.0844
  222CHOL    R2 1997   6.522   7.622   6.596  0.2320 -0.1356  0.1181
  222CHOL    R3 1998   6.497   7.735   6.842 -0.1557 -0.0030  0.0239
  222CHOL    R4 1999   6.473   7.446   6.889  0.1937  0.0037  0.1953
  222CHOL    R5 2000   6.332   7.600   6.952 -0.0755 -0.1472 -0.0417
  222CHOL    C1 2001   6.421   7.449   7.291 -0.1926  0.2093  0.1517
  222CHOL    C2 2002   6.584   7.384   7.627 -0.0478 -0.1260 -0.1458
  223PNCE   AM1 2003  12.134  11.929   8.430  0.0577  0.2995 -0.0433
  223PNCE   AM2 2004  12.437  11.896   8.324  0.2141 -0.0533 -0.4650
  223PNCE   T1A 2005  12.008  12.043   8.028  0.0408 -0.1987  0.1456
  223PNCE   C2A 2006  12.057  11.994   7.695  0.1306 -0.0243  0.2873
  223PNCE   C3A 2007  11.923  12.069   7.339 -0.2691  0.4516 -0.4822
  223PNCE   C1B 2008  12.743  11.932   7.954  0.2463  0.0023  0.1230
  223PNCE   C2B 2009  13.147  11.995   7.662 -0.0037  0.0078 -0.1287
  223PNCE   C3B 2010  13.298  12.232   7.282  0.1036  0.2585  0.0771
  223PNCE   D4B 2011  13.197  12.649   7.104 -0.0483  0.0430  0.0802
  223PNCE   C5B 2012  13.010  12.774   6.773 -0.2037 -0.0171 -0.1081
  223PNCE   C6B 2013  13.082  13.192   6.476 -0.0024 -0.1115 -0.0885
  224XCA    COO 2014   3.391  15.854   9.268  0.1041  0.1805 -0.0864
  224XCA     C1 2015   3.487  15.434   8.991 -0.0581 -0.4422 -0.0881
  224XCA     C2 2016   3.495  15.349   8.558  0.2470 -0.0673 -0.0310
  224XCA     C3 2017   3.413  15.243   8.127  0.1081 -0.0894  0.0628
  224XCA     C4 2018   3.320  15.308   7.662  0.2189 -0.3687 -0.1140
  224XCA     C5 2019   3.216  15.346   7.249 -0.2025  0.0257 -0.1713
  224XCA     C6 2020   3.308  15.277   6.871  0.2533 -0.1939 -0.1941
  225CHOL   ROH 2021   2.274   3.707   9.037 -0.1740  0.0022 -0.0809
  225CHOL    R1 2022   2.308   3.583   8.785 -0.0427  0.0368 -0.0821
  225CHOL    R2 2023   2.119   3.415   8.675  0.0884 -0.0892 -0.1290
  225CHOL    R3 2024   2.137   3.586   8.464  0.0134 -0.0621 -0.1124
  225CHOL    R4 2025   1.980   3.360   8.363  0.0521 -0.0863 -0.1122
  225CHOL    R5 2026   2.161   3.442   8.274  0.0162 -0.0336 -0.1315
  225CHOL    C1 2027   1.917   3.487   7.984 -0.0395 -0.0592 -0.0868
  225CHOL    C2 2028   1.596   3.333   7.752  0.0074  0.2355  0.0185
  226PNCE   AM1 2029  14.719  13.185   9.304  0.0755  0.1296 -0.3739
  226PNCE   AM2 2030  14.468  13.359   9.342  0.3559  0.1383  0.1846
  226PNCE   T1A 2031  14.844  13.490   8.869  0.2947 -0.1718 -0.1212
  226PNCE   C2A 2032  14.714  13.547   8.463 -0.2656  0.0690 -0.0105
  226PNCE   C3A 2033  14.516  13.397   8.035 -0.1901 -0.1383 -0.2224
  226PNCE   C1B 2034  14.482  13.165   8.838  0.3961 -0.1465 -0.0238
  226PNCE   C2B 2035  14.310  13.138   8.416 -0.0260  0.2937  0.0730
  226PNCE   C3B 2036  14.116  13.090   8.033  0.1781 -0.0121 -0.1946
  226PNCE   D4B 2037  14.141  13.238   7.603  0.0835 -0.1199  0.2757
  226PNCE   C5B 2038  14.152  12.895   7.356  0.1711 -0.1095  0.2545
  226PNCE   C6B 2039  14.186  12.426   7.037 -0.0446  0.2029 -0.2796
  227XCA    COO 2040   8.143  13.778   8.155  0.3839  0.1208  0.3776
  227XCA     C1 2041   8.240  14.070   7.829  0.0757 -0.2791  0.2530
  227XCA     C2 2042   8.288  14.239   7.499 -0.0662  0.0049  0.2215
  227XCA     C3 2043   8.458  14.322   7.182  0.1030 -0.0502  0.4316
  227XCA     C4 2044   8.452  14.469   6.804  0.1218  0.0708  0.3341
  227XCA     C5 2045   8.620  14.416   6.390  0.3125 -0.4077 -0.1222
  227XCA     C6 2046   8.480  14.536   6.001  0.1256  0.0563 -0.4114
  228PNCE   AM1 2047   6.009   3.065   8.485 -0.0345 -0.1290 -0.1715
  228PNCE   AM2 2048   6.246   3.375   8.445 -0.0294  0.2712 -0.1969
  228PNCE   T1A 2049   5.873   2.664   8.357  0.4372 -0.1178  0.1438
  228PNCE   C2A 2050   5.547   2.551   7.956 -0.0633  0.1380  0.0067
  228PNCE   C3A 2051   5.438   2.209   7.662  0.1074  0.1261  0.1018
  228PNCE   C1B 2052   6.238   3.085   8.083  0.0700 -0.0350 -0.1488
  228PNCE   C2B 2053   6.394   2.758   7.828 -0.1690 -0.2294  0.4040
  228PNCE   C3B 2054   6.575   2.550   7.428  0.0530  0.1515  0.1456
  228PNCE   D4B 2055   6.671   2.646   7.018 -0.0360 -0.0884 -0.4035
  228PNCE   C5B 2056   6.409   2.838   6.706  0.0732 -0.1130  0.3447
  228PNCE   C6B 2057   5.978   2.995   6.872  0.1110  0.0544  0.0705
  229CHOL   ROH 2058   7.878   4.651   5.148 -0.0387 -0.1270 -0.0867
  229CHOL    R1 2059   8.093   4.833   5.169 -0.1747  0.0264  0.0007
  229CHOL    R2 2060   8.145   4.977   5.400 -0.1644 -0.1967  0.1401
  229CHOL    R3 2061   8.392   4.867   5.374 -0.0860  0.0312 -0.1280
  229CHOL    R4 2062   8.429   5.089   5.562 -0.1595 -0.1337  0.0879
  229CHOL    R5 2063   8.541   5.054   5.379 -0.2380  0.1531 -0.0212
  229CHOL    C1 2064   8.827   5.051   5.632 -0.0830  0.1169 -0.1943
  229CHOL    C2 2065   9.142   4.891   5.748 -0.1311  0.1456 -0.2349
  230XCA    COO 2066  10.036   8.535   8.060 -0.0194 -0.1158  0.2689
  230XCA     C1 2067  10.019   8.626   7.581 -0.1853  0.4328 -0.4205
  230XCA     C2 2068  10.230   8.378   7.184 -0.1284 -0.0944 -0.0912
  230XCA     C3 2069  10.410   8.392   6.844 -0.0733 -0.1002  0.0872
  230XCA     C4 2070  10.422   8.249   6.322 -0.0597  0.0014 -0.4114
  230XCA     C5 2071  10.513   8.439   5.944 -0.1059  0.0332  0.0100
  230XCA     C6 2072  10.785   8.629   5.871  0.2191  0.0700 -0.0577
  231CHOL   ROH 2073  12.838   6.913   6.767 -0.0920 -0.2314  0.3204
  231CHOL    R1 2074  12.736   6.681   6.641 -0.0290 -0.1619  0.1370
  231CHOL    R2 2075  12.624   6.685   6.389  0.0233 -0.0044  0.1149
  231CHOL    R3 2076  12.807   6.491   6.339  0.0650  0.0586  0.0180
  231CHOL    R4 2077  12.655   6.515   6.090 -0.1372 -0.0594  0.1281
  231CHOL    R5 2078  12.690   6.332   6.203  0.0240 -0.0200  0.1435
  231CHOL    C1 2079  12.845   6.234   5.869 -0.1914 -0.0323  0.0451
  231CHOL    C2 2080  12.689   6.540   5.612  0.1902  0.0442  0.1234
  232PNCE   AM1 2081  12.450   8.388   7.695  0.0713  0.5716 -0.1936
  232PNCE   AM2 2082  12.286   8.212   7.483  0.0085  0.1086  0.1163
  232PNCE   T1A 2083  12.729   8.513   7.353  0.1023  0.2213  0.2152
  232PNCE   C2A 2084  13.130   8.619   7.074 -0.0765 -0.1028 -0.1682
  232PNCE   C3A 2085  13.264   8.919   6.766 -0.1172 -0.1892 -0.1067
  232PNCE   C1B 2086  12.152   8.524   7.070  0.1727  0.0801 -0.0869
  232PNCE   C2B 2087  11.886   8.856   6.808 -0.2745 -0.0452 -0.1078
  232PNCE   C3B 2088  11.910   9.292   6.991 -0.1861 -0.1444 -0.0005
  232PNCE   D4B 2089  12.012   9.696   6.806  0.1673  0.0281  0.0098
  232PNCE   C5B 2090  12.198   9.756   6.349  0.2505 -0.1937 -0.1106
  232PNCE   C6B 2091  11.977   9.768   5.919  0.1544  0.0975  0.0422
  233PNCE   AM1 2092  14.604   2.754   8.686  0.2810 -0.0459  0.1315
  233PNCE   AM2 2093  14.755   2.967   8.504  0.3008  0.1673 -0.3367
  233PNCE   T1A 2094  14.490   2.569   8.367  0.0779 -0.2550  0.3287
  233PNCE   C2A 2095  14.321   2.498   7.990  0.0541  0.0104 -0.0176
  233PNCE   C3A 2096  14.049   2.406   7.633  0.0578 -0.0949 -0.3503
  233PNCE   C1B 2097  14.504   3.044   8.127  0.1028 -0.3485  0.2388
  233PNCE   C2B 2098  14.303   3.440   7.871  0.1442 -0.0567 -0.0393
  233PNCE   C3B 2099  14.553   3.614   7.566 -0.0928  0.5413 -0.2487
  233PNCE   D4B 2100  14.751   3.428   7.257 -0.0174  0.0381 -0.1553
  233PNCE   C5B 2101  14.715   3.684   6.958 -0.0813  0.2948  0.2491
  233PNCE   C6B 2102  14.746   4.118   6.920  0.2358  0.2401 -0.1338
  234CHOL   ROH 2103  14.635   1.617   8.194  0.5530  0.4642  0.2257
  234CHOL    R1 2104  14.811   1.571   7.978  0.3614  0.2111  0.1186
  234CHOL    R2 2105  14.994   1.363   7.977  0.1193 -0.0059  0.0400
  234CHOL    R3 2106  14.874   1.302   7.741 -0.1071  0.0847  0.1287
  234CHOL    R4 2107  15.152   1.220   7.705 -0.2245 -0.2605 -0.0340
  234CHOL    R5 2108  15.039   1.352   7.575 -0.1495 -0.1510  0.0108
  234CHOL    C1 2109  15.132   1.080   7.326 -0.6373 -0.3237  0.0061
  234CHOL    C2 2110  14.821   0.971   7.014  0.2468  0.0218  0.1868
  235PNCE   AM1 2111   5.435  12.670   9.025 -0.4058  0.2705 -0.0407
  235PNCE   AM2 2112   5.634  12.606   8.867  0.0246  0.6612 -0.1416
  235PNCE   T1A 2113   5.438  13.099   8.823  0.1473  0.0390 -0.3493
  235PNCE   C2A 2114   5.453  13.288   8.473  0.0565  0.1119  0.1734
  235PNCE   C3A 2115   5.504  13.280   8.017  0.1714  0.0101 -0.3083
  235PNCE   C1B 2116   5.221  12.652   8.587  0.0965 -0.1475 -0.0579
  235PNCE   C2B 2117   5.054  12.356   8.299  0.0846  0.1313 -0.2675
  235PNCE   C3B 2118   4.943  12.232   7.991  0.0893  0.2437 -0.1673
  235PNCE   D4B 2119   4.794  12.230   7.565 -0.0732  0.3639 -0.3695
  235PNCE   C5B 2120   4.959  12.463   7.271 -0.0705 -0.0254 -0.0211
  235PNCE   C6B 2121   5.401  12.596   7.089 -0.0113 -0.0335 -0.2177
  236XCA    COO 2122  12.599   6.457   6.989 -0.1039  0.1677  0.0583
  236XCA     C1 2123  12.528   6.294   6.617 -0.1629  0.2239 -0.0140
  236XCA     C2 2124  12.281   6.146   6.243 -0.1478  0.2129  0.0327
  236XCA     C3 2125  12.251   5.869   6.000 -0.0608  0.0876  0.0263
  236XCA     C4 2126  12.146   5.435   5.980 -0.0508  0.1395  0.1669
  236XCA     C5 2127  12.300   4.961   5.908 -0.0331 -0.1425 -0.2970
  236XCA     C6 2128  12.509   4.569   5.958 -0.0748  0.1526 -0.0444
  237CHOL   ROH 2129  10.942   4.776   6.915 -0.0074  0.0186  0.0345
  237CHOL    R1 2130  10.837   4.638   6.691  0.0122  0.0006  0.0362
  237CHOL    R2 2131  10.912   4.697   6.431 -0.0579  0.0640  0.0294
  237CHOL    R3 2132  10.969   4.432   6.421  0.0541  0.0895 -0.0113
  237CHOL    R4 2133  11.089   4.543   6.178 -0.0526  0.1645 -0.0287
  237CHOL    R5 2134  10.950   4.375   6.190  0.0225  0.1041 -0.0116
  237CHOL    C1 2135  11.247   4.204   6.022  0.0556  0.2470 -0.1008
  237CHOL    C2 2136  11.564   4.224   5.885 -0.2603 -0.2758  0.2095
  238CHOL   ROH 2137   0.877   3.736   8.134 -0.1566  0.1763  0.0010
  238CHOL    R1 2138   0.932   3.578   7.906 -0.0852  0.0594  0.0963
  238CHOL    R2 2139   0.964   3.686   7.653 -0.0206 -0.0681  0.0410
  238CHOL    R3 2140   1.199   3.551   7.661 -0.0159 -0.0493  0.1856
  238CHOL    R4 2141   1.154   3.604   7.377  0.1482 -0.0820  0.1621
  238CHOL    R5 2142   1.194   3.410   7.468  0.1102 -0.0653  0.1992
  238CHOL    C1 2143   1.487   3.430   7.224  0.2509 -0.0725  0.3683
  238CHOL    C2 2144   1.749   3.395   6.943  0.0622  0.2824 -0.0323
  239CHOL   ROH 2145  10.644  14.393   8.743 -0.1227  0.2290 -0.0286
  239CHOL    R1 2146  10.668  14.526   8.495  0.1474  0.2440  0.0033
  239CHOL    R2 2147  10.911  14.602   8.390  0.3132 -0.2424  0.0156
  239CHOL    R3 2148  10.827  14.460   8.174  0.0009 -0.0172 -0.0193
  239CHOL    R4 2149  10.978  14.685   8.061  0.1648 -0.1045  0.0185
  239CHOL    R5 2150  10.774  14.627   8.010  0.0601  0.1483  0.1256
  239CHOL    C1 2151  10.938  14.600   7.667 -0.2148  0.1872 -0.0125
  239CHOL    C2 2152  11.329  14.579   7.412  0.1118  0.0303  0.1209
  240XCA    COO 2153   3.983   6.388   8.117 -0.0671  0.0137 -0.0680
  240XCA     C1 2154   3.764   6.093   7.982 -0.0802  0.1998 -0.0531
  240XCA     C2 2155   3.839   5.659   7.863  0.0852  0.1918 -0.2665
  240XCA     C3 2156   3.976   5.326   7.582  0.2948 -0.0682 -0.2934
  240XCA     C4 2157   3.946   4.984   7.212  0.0945  0.4603  0.0312
  240XCA     C5 2158   4.034   4.533   7.097  0.2151 -0.0416 -0.0357
  240XCA     C6 2159   4.101   4.230   7.323 -0.3494  0.3513 -0.3013
  241PNCE   AM1 2160  10.988   8.203   7.628 -0.2800 -0.1927 -0.0910
  241PNCE   AM2 2161  11.133   8.057   7.477  0.0275 -0.0603  0.0019
  241PNCE   T1A 2162  10.788   8.267   7.114  0.0262  0.2006  0.0464
  241PNCE   C2A 2163  10.820   8.103   6.607  0.1125 -0.0022 -0.1094
  241PNCE   C3A 2164  11.104   7.741   6.383  0.0254  0.3089 -0.0382
  241PNCE   C1B 2165  11.261   8.372   7.152  0.1338  0.0640 -0.1281
  241PNCE   C2B 2166  11.340   8.817   7.061 -0.0789  0.1311  0.1239
  241PNCE   C3B 2167  11.429   9.078   6.695 -0.0965  0.2886  0.1938
  241PNCE   D4B 2168  11.421   9.463   6.587 -0.1707  0.0044  0.0403
  241PNCE   C5B 2169  11.659   9.396   6.297 -0.1785 -0.0291  0.2340
  241PNCE   C6B 2170  11.498   9.544   5.886  0.3737 -0.2184  0.3900
  242CHOL   ROH 2171  12.125   9.129   7.898 -0.0112 -0.1579  0.0378
  242CHOL    R1 2172  12.177   9.209   7.631  0.0178 -0.0662  0.0695
  242CHOL    R2 2173  12.016   9.387   7.495 -0.0320 -0.1005  0.0731
  242CHOL    R3 2174  12.249   9.521   7.458 -0.0812  0.0116  0.1705
  242CHOL    R4 2175  12.064   9.642   7.267 -0.0068 -0.1884 -0.0194
  242CHOL    R5 2176  12.260   9.559   7.222  0.0680 -0.0999  0.1620
  242CHOL    C1 2177  12.311   9.917   7.099 -0.0383 -0.1342  0.0180
  242CHOL    C2 2178  12.609  10.110   6.999  0.0216 -0.2089 -0.1777
  243XCA    COO 2179   5.869   1.369   8.468  0.2242 -0.0296 -0.4905
  243XCA     C1 2180   6.097   1.244   8.132 -0.0378 -0.1000  0.1654
  243XCA     C2 2181   6.254   0.946   7.836 -0.1149 -0.2221  0.1699
  243XCA     C3 2182   6.402   0.530   7.641  0.1624  0.0370  0.0143
  243XCA     C4 2183   6.738   0.301   7.437  0.3328 -0.2501 -0.0289
  243XCA     C5 2184   6.709   0.434   7.052 -0.0580  0.2164  0.0416
  243XCA     C6 2185   6.622   0.597   6.572  0.1806 -0.0748 -0.1100
  244PNCE   AM1 2186   4.413   6.117   8.205 -0.3507  0.0730  0.0089
  244PNCE   AM2 2187   4.689   5.957   8.214  0.1995  0.0446 -0.1457
  244PNCE   T1A 2188   4.187   5.703   8.183 -0.0970  0.0365 -0.3553
  244PNCE   C2A 2189   4.076   5.156   8.123  0.0183  0.0788 -0.3469
  244PNCE   C3A 2190   3.958   4.883   7.677 -0.1771  0.2153 -0.3535
  244PNCE   C1B 2191   4.608   5.777   7.816 -0.1938 -0.3242 -0.1254
  244PNCE   C2B 2192   4.383   5.620   7.573 -0.1680 -0.0464 -0.0369
  244PNCE   C3B 2193   4.294   5.488   7.235  0.1689 -0.1225  0.1023
  244PNCE   D4B 2194   4.074   5.385   6.868 -0.0516  0.0098 -0.1526
  244PNCE   C5B 2195   4.248   4.995   6.775  0.1829 -0.2695 -0.0647
  244PNCE   C6B 2196   4.395   4.589   6.680 -0.2025 -0.4369  0.0737
  245PNCE   AM1 2197   0.090  15.598   8.514  0.0829 -0.0559  0.0927
  245PNCE   AM2 2198   0.410  15.745   8.532 -0.0737  0.2695  0.1838
  245PNCE   T1A 2199   0.060  15.368   8.197 -0.1462  0.2253  0.1913
  245PNCE   C2A 2200  -0.288  15.220   7.812  0.1927  0.1311  0.0183
  245PNCE   C3A 2201  -0.457  15.231   7.460  0.1623 -0.0119 -0.0059
  245PNCE   C1B 2202   0.677  15.801   8.124 -0.0738 -0.2585  0.0149
  245PNCE   C2B 2203   0.750  15.817   7.626 -0.0915  0.0763  0.3804
  245PNCE   C3B 2204   0.628  15.681   7.307 -0.0581  0.1785 -0.2708
  245PNCE   D4B 2205   0.463  15.287   7.179 -0.0495 -0.0768  0.2913
  245PNCE   C5B 2206   0.713  15.077   7.445  0.2170 -0.2100 -0.1192
  245PNCE   C6B 2207   0.881  15.115   7.856  0.2454 -0.0022 -0.0306
  246CHOL   ROH 2208  13.650  10.728   8.413  0.0822  0.0336 -0.1163
  246CHOL    R1 2209  13.778  10.812   8.175 -0.0440  0.0909 -0.1642
  246CHOL    R2 2210  13.850  10.636   7.974  0.0128  0.1148 -0.1650
  246CHOL    R3 2211  13.704  10.804   7.818 -0.1457  0.0014 -0.1414
  246CHOL    R4 2212  13.865  10.647   7.629 -0.0238  0.1574 -0.1656
  246CHOL    R5 2213  13.853  10.865   7.641 -0.2122  0.1468 -0.1479
  246CHOL    C1 2214  13.736  10.811   7.282 -0.1939  0.0755 -0.1437
  246CHOL    C2 2215  13.949  10.579   7.117 -0.2523  0.2321 -0.0716
  247XCA    COO 2216   4.707   5.460   8.642  0.0745 -0.2790  0.1259
  247XCA     C1 2217   4.529   5.358   8.142  0.0814 -0.1125  0.0228
  247XCA     C2 2218   4.462   5.201   7.790 -0.1877  0.1210 -0.2976
  247XCA     C3 2219   4.373   4.666   7.758  0.0312  0.1067  0.1487
  247XCA     C4 2220   4.148   4.288   7.871 -0.1902 -0.1140 -0.0572
  247XCA     C5 2221   3.881   3.965   7.779  0.0676  0.3702  0.0709
  247XCA     C6 2222   3.608   3.582   7.983 -0.3615  0.1430  0.2427
  248CHOL   ROH 2223   4.530  13.466   5.425 -0.1525  0.0373  0.0087
  248CHOL    R1 2224   4.635  13.242   5.562  0.0532  0.0212 -0.1691
  248CHOL    R2 2225   4.507  13.127   5.778  0.3928  0.0222  0.0367
  248CHOL    R3 2226   4.528  12.901   5.630  0.1322  0.0266 -0.0109
  248CHOL    R4 2227   4.484  12.806   5.904  0.2686  0.0231  0.0161
  248CHOL    R5 2228   4.646  12.748   5.771  0.1358 -0.0701 -0.1138
  248CHOL    C1 2229   4.489  12.406   5.837 -0.0483  0.0276 -0.0406
  248CHOL    C2 2230   4.740  12.146   5.685 -0.0153 -0.0524  0.0710
  249XCA    COO 2231   5.646   2.161   4.767 -0.0856  0.0594 -0.1053
  249XCA     C1 2232   5.602   1.862   5.140  0.3033  0.1413 -0.0088
  249XCA     C2 2233   5.516   1.758   5.546 -0.0685  0.0840  0.0044
  249XCA     C3 2234   5.228   1.803   5.942  0.4105  0.1506  0.3107
  249XCA     C4 2235   5.001   1.664   6.356 -0.1629 -0.2243 -0.1526
  249XCA     C5 2236   4.952   1.387   6.727 -0.4577  0.0846 -0.3101
  249XCA     C6 2237   5.309   1.505   7.003 -0.0278 -0.0041  0.2921
  250CHOL   ROH 2238   2.648   3.223   4.981  0.0625 -0.0897  0.1115
  250CHOL    R1 2239   2.828   3.311   5.181  0.1237 -0.1734  0.0937
  250CHOL    R2 2240   2.774   3.525   5.347  0.3433  0.0079 -0.0619
  250CHOL    R3 2241   2.825   3.344   5.544  0.0776  0.0735  0.0721
  250CHOL    R4 2242   2.812   3.602   5.682  0.2321  0.1682 -0.0855
  250CHOL    R5 2243   2.975   3.458   5.692  0.1006  0.0266  0.0852
  250CHOL    C1 2244   2.882   3.478   6.061 -0.0819  0.3232  0.0265
  250CHOL    C2 2245   2.635   3.532   6.396 -0.1133 -0.1050  0.0250
  251XCA    COO 2246  14.441   1.485   8.719 -0.0369 -0.1851 -0.2662
  251XCA     C1 2247  14.401   1.232   8.249 -0.0666 -0.0063 -0.1645
  251XCA     C2 2248  14.267   1.259   7.906  0.1332  0.0460  0.1724
  251XCA     C3 2249  14.360   1.073   7.460 -0.2348 -0.0244 -0.1275
  251XCA     C4 2250  14.095   0.956   7.165 -0.4751  0.0754  0.1874
  251XCA     C5 2251  13.665   0.796   7.034 -0.3045  0.0173  0.0480
  251XCA     C6 2252  13.400   0.785   6.665  0.0039  0.0883  0.0073
  252XCA    COO 2253  13.234   4.299   3.952 -0.0023 -0.1133  0.0646
  252XCA     C1 2254  13.306   4.486   4.415 -0.1910  0.1033 -0.0151
  252XCA     C2 2255  13.483   4.547   4.857 -0.3702  0.2610  0.2700
  252XCA     C3 2256  13.487   4.861   5.000  0.1779  0.2710  0.0022
  252XCA     C4 2257  13.282   5.215   5.270 -0.0106 -0.0554  0.1260
  252XCA     C5 2258  13.240   5.356   5.754 -0.1339 -0.0888 -0.1354
  252XCA     C6 2259  13.170   5.636   5.977 -0.0867  0.2694  0.1443
  253PNCE   AM1 2260  10.554   3.715   4.547  0.2416 -0.1728  0.1319
  253PNCE   AM2 2261  10.337   3.780   4.332  0.0663  0.0140  0.3131
  253PNCE   T1A 2262  10.283   4.054   4.901  0.0239 -0.1707  0.1485
  253PNCE   C2A 2263  10.046   4.477   4.875  0.0896 -0.2458 -0.3662
  253PNCE   C3A 2264   9.788   4.727   4.539  0.0183  0.0376 -0.1692
  253PNCE   C1B 2265  10.176   4.137   4.427  0.0118 -0.2757  0.0557
  253PNCE   C2B 2266  10.214   4.522   4.399  0.1430 -0.1426  0.1992
  253PNCE   C3B 2267  10.360   4.858   4.428  0.0324  0.0168  0.0114
  253PNCE   D4B 2268  10.174   4.965   4.704 -0.0057 -0.0484  0.1919
  253PNCE   C5B 2269   9.847   5.270   4.638 -0.1057 -0.1944  0.0499
  253PNCE   C6B 2270   9.820   5.721   4.605  0.2084 -0.0680 -0.2885
  254XCA    COO 2271   7.452   1.725   5.374  0.1536 -0.1154 -0.0672
  254XCA     C1 2272   7.019   1.632   5.602  0.0551  0.0627 -0.1492
  254XCA     C2 2273   6.774   1.641   5.965 -0.1386 -0.2198  0.1564
  254XCA     C3 2274   6.614   1.439   6.355  0.0598 -0.3087 -0.3670
  254XCA     C4 2275   6.416   1.444   6.776  0.0179  0.2520 -0.0147
  254XCA     C5 2276   6.565   1.686   7.030  0.0701  0.0861  0.2174
  254XCA     C6 2277   6.731   1.632   7.457  0.0182  0.0458 -0.1470
  255CHOL   ROH 2278  14.219   8.852   4.711 -0.0820 -0.1126  0.0466
  255CHOL    R1 2279  14.061   8.920   4.936 -0.0902 -0.1215  0.0421
  255CHOL    R2 2280  13.932   9.163   4.958 -0.1363 -0.1501  0.0181
  255CHOL    R3 2281  13.713   9.007   4.997 -0.1075 -0.1862  0.0450
  255CHOL    R4 2282  13.683   9.225   5.191 -0.1675 -0.1231 -0.0209
  255CHOL    R5 2283  13.677   9.012   5.234 -0.1259 -0.1172  0.0456
  255CHOL    C1 2284  13.333   9.115   5.362 -0.1585 -0.1413 -0.0183
  255CHOL    C2 2285  13.153   9.367   5.545  0.0497 -0.0519  0.1447
  256PNCE   AM1 2286   9.877  11.283   8.901  0.3003 -0.0330  0.3048
  256PNCE   AM2 2287   9.492  11.314   8.925 -0.2520 -0.0295  0.0783
  256PNCE   T1A 2288  10.078  11.069   8.567  0.1992 -0.2491  0.0324
  256PNCE   C2A 2289  10.306  11.137   8.177  0.2331 -0.2348  0.0594
  256PNCE   C3A 2290  10.592  11.531   8.120  0.0847 -0.1339  0.0935
  256PNCE   C1B 2291   9.494  11.674   8.684 -0.0353  0.2047 -0.2185
  256PNCE   C2B 2292   9.556  11.925   8.340 -0.0340  0.1261 -0.0746
  256PNCE   C3B 2293   9.651  12.108   7.880  0.1749  0.2229 -0.3828
  256PNCE   D4B 2294   9.698  12.390   7.606 -0.0597  0.0638 -0.1211
  256PNCE   C5B 2295   9.918  12.584   7.316  0.3135 -0.0564 -0.1094
  256PNCE   C6B 2296  10.044  13.060   7.382 -0.0860 -0.0398 -0.1268
  257PNCE   AM1 2297   2.189   4.157   9.049 -0.2270  0.2396 -0.1626
  257PNCE   AM2 2298   2.026   4.065   8.674  0.1046 -0.0429  0.1192
  257PNCE   T1A 2299   2.256   4.468   8.764  0.0404 -0.0403  0.1207
  257PNCE   C2A 2300   2.316   4.800   8.446 -0.1269  0.2320  0.1567
  257PNCE   C3A 2301   2.682   4.971   8.348  0.0491 -0.2791  0.2782
  257PNCE   C1B 2302   1.917   3.969   8.255  0.1533 -0.0025 -0.0046
  257PNCE   C2B 2303   1.984   4.154   7.757 -0.0844  0.1795  0.0441
  257PNCE   C3B 2304   2.144   4.170   7.362 -0.0024  0.1631  0.4279
  257PNCE   D4B 2305   2.184   4.172   6.910  0.1647 -0.1041  0.0247
  257PNCE   C5B 2306   2.250   3.832   6.604 -0.2544  0.1421 -0.0820
  257PNCE   C6B 2307   2.232   3.440   6.692  0.3028 -0.1942 -0.1968
  258PNCE   AM1 2308  10.876   8.905   7.792 -0.2905  0.1461  0.1433
  258PNCE   AM2 2309  10.677   9.185   7.930 -0.0089  0.1045 -0.1282
  258PNCE   T1A 2310  10.677   9.166   7.439 -0.2386  0.1175 -0.0060
  258PNCE   C2A 2311  10.694   9.348   7.084  0.1489 -0.0808 -0.0241
  258PNCE   C3A 2312  10.870   9.556   6.658 -0.2952 -0.0609 -0.2962
  258PNCE   C1B 2313  10.409   9.463   7.838  0.2295 -0.1014 -0.2856
  258PNCE   C2B 2314  10.311   9.800   7.563  0.0321 -0.0260  0.2758
  258PNCE   C3B 2315  10.436   9.732   7.190  0.2937 -0.2105 -0.1705
  258PNCE   D4B 2316  10.382   9.603   6.740  0.0127 -0.0138  0.0475
  258PNCE   C5B 2317  10.495   9.854   6.393 -0.0809  0.1984  0.1252
  258PNCE   C6B 2318  10.778  10.207   6.370 -0.0658  0.1328 -0.5069
  259CHOL   ROH 2319  12.159  12.398   8.403 -0.0324 -0.3511  0.1126
  259CHOL    R1 2320  12.337  12.438   8.186 -0.1790 -0.0267  0.0459
  259CHOL    R2 2321  12.415  12.233   8.019  0.1431  0.1074  0.0271
  259CHOL    R3 2322  12.325  12.400   7.825 -0.2410 -0.0606  0.0510
  259CHOL    R4 2323  12.513  12.222   7.688 -0.0590  0.1922 -0.0374
  259CHOL    R5 2324  12.517  12.440   7.687 -0.3870  0.2030 -0.0848
  259CHOL    C1 2325  12.486  12.373   7.313 -0.5373  0.0839 -0.0524
  259CHOL    C2 2326  12.687  12.615   7.130  0.1978  0.3221  0.1778
  260XCA    COO 2327   4.482   8.844   8.514  0.1237  0.1770 -0.1326
  260XCA     C1 2328   4.406   8.564   8.170 -0.2916  0.0065  0.0669
  260XCA     C2 2329   4.728   8.571   7.806 -0.2055 -0.4264 -0.0830
  260XCA     C3 2330   4.962   8.749   7.425 -0.1795 -0.2968 -0.1804
  260XCA     C4 2331   5.302   9.001   7.191  0.0088 -0.2297 -0.1700
  260XCA     C5 2332   5.542   9.300   7.145 -0.0469  0.0877 -0.1512
  260XCA     C6 2333   5.373   9.632   6.870 -0.1339  0.1411 -0.2751
  261PNCE   AM1 2334   6.192   8.561   4.799 -0.1374  0.3026 -0.1203
  261PNCE   AM2 2335   6.431   8.498   4.653  0.3276 -0.3138 -0.1055
  261PNCE   T1A 2336   6.320   8.473   5.182 -0.3004  0.3663 -0.3848
  261PNCE   C2A 2337   6.332   8.452   5.677  0.0319 -0.0048  0.1134
  261PNCE   C3A 2338   6.284   8.427   6.090  0.0594  0.1608  0.0023
  261PNCE   C1B 2339   6.763   8.503   4.936 -0.2106 -0.1476  0.1298
  261PNCE   C2B 2340   6.719   8.371   5.396 -0.0000  0.1473 -0.2131
  261PNCE   C3B 2341   6.903   8.352   5.788  0.2809 -0.1323  0.1043
  261PNCE   D4B 2342   6.786   8.424   6.165  0.1412 -0.0646 -0.0566
  261PNCE   C5B 2343   6.971   8.798   6.311 -0.0143 -0.2046 -0.1010
  261PNCE   C6B 2344   7.236   9.143   6.284 -0.1660 -0.0303 -0.1514
  262CHOL   ROH 2345   4.914   4.570   8.173  0.2457 -0.0007  0.0809
  262CHOL    R1 2346   4.822   4.752   7.977 -0.0025 -0.1459  0.0592
  262CHOL    R2 2347   4.992   4.919   7.838 -0.2320  0.1094  0.0803
  262CHOL    R3 2348   4.874   4.806   7.621 -0.0277 -0.0809  0.0647
  262CHOL    R4 2349   5.022   5.036   7.514 -0.1044 -0.0410  0.0363
  262CHOL    R5 2350   4.810   4.992   7.484 -0.0618 -0.1900 -0.0729
  262CHOL    C1 2351   4.928   4.997   7.121  0.1616 -0.3073 -0.0040
  262CHOL    C2 2352   5.150   5.208   7.003 -0.0315  0.0279  0.2087
  263PNCE   AM1 2353  15.768   8.734   8.309 -0.0197 -0.1282 -0.1696
  263PNCE   AM2 2354  16.050   8.840   8.166 -0.1663 -0.0841 -0.2915
  263PNCE   T1A 2355  15.405   8.940   7.999 -0.1751  0.0836  0.1097
  263PNCE   C2A 2356  15.072   8.861   7.722  0.1455 -0.0266 -0.1302
  263PNCE   C3A 2357  14.619   8.991   7.871 -0.1896  0.0376 -0.2825
  263PNCE   C1B 2358  15.886   9.001   7.745 -0.0498 -0.1786 -0.1933
  263PNCE   C2B 2359  15.854   9.081   7.217  0.0499  0.0365  0.2106
  263PNCE   C3B 2360  15.623   9.062   6.868 -0.1685  0.2080 -0.2059
  263PNCE   D4B 2361  15.255   9.060   6.588  0.1854 -0.2257  0.1957
  263PNCE   C5B 2362  15.055   8.962   6.215 -0.1242  0.1894 -0.1455
  263PNCE   C6B 2363  15.175   9.240   5.800  0.0416  0.0361 -0.0657
  264CHOL   ROH 2364   2.448   7.156   5.253 -0.0274 -0.0213 -0.0503
  264CHOL    R1 2365   2.576   7.111   5.501 -0.1034 -0.0172 -0.0096
  264CHOL    R2 2366   2.770   7.281   5.601 -0.0759 -0.0566  0.0110
  264CHOL    R3 2367   2.606   7.287   5.818 -0.1319  0.0296 -0.0336
  264CHOL    R4 2368   2.860   7.399   5.913 -0.2020  0.1873 -0.0433
  264CHOL    R5 2369   2.750   7.234   6.003 -0.1611  0.2080  0.0400
  264CHOL    C1 2370   2.758   7.474   6.299 -0.3279  0.4103 -0.1168
  264CHOL    C2 2371   2.488   7.748   6.566  0.1560 -0.0260 -0.0502
  265XCA    COO 2372   6.418  11.639   8.691 -0.1272 -0.2875  0.1040
  265XCA     C1 2373   6.227  11.444   8.334  0.3160  0.1279 -0.1954
  265XCA     C2 2374   6.207  11.567   7.859 -0.0416  0.0313  0.2360
  265XCA     C3 2375   6.067  11.847   7.530  0.0164 -0.0046 -0.3856
  265XCA     C4 2376   5.830  12.075   7.140 -0.0143  0.1633 -0.0960
  265XCA     C5 2377   5.837  12.232   6.734 -0.1275  0.1806 -0.1531
  265XCA     C6 2378   6.077  12.439   6.429  0.0173  0.0457  0.0731
  266PNCE   AM1 2379   0.816  13.291   8.803 -0.1562 -0.4482 -0.0368
  266PNCE   AM2 2380   0.806  13.066   8.941 -0.0783 -0.1508  0.1706
  266PNCE   T1A 2381   0.923  13.311   8.347 -0.1978  0.0580 -0.1400
  266PNCE   C2A 2382   0.824  13.275   7.881 -0.1859 -0.1026  0.0089
  266PNCE   C3A 2383   0.794  13.159   7.480 -0.0849  0.0442 -0.0796
  266PNCE   C1B 2384   0.990  12.824   8.614  0.2635 -0.0707  0.1782
  266PNCE   C2B 2385   0.832  12.477   8.362 -0.2868 -0.0760  0.0119
  266PNCE   C3B 2386   0.939  12.332   7.877 -0.2198  0.1739  0.0648
  266PNCE   D4B 2387   1.133  12.237   7.579 -0.0627  0.2242  0.1968
  266PNCE   C5B 2388   1.590  12.242   7.607 -0.0015 -0.2248 -0.0943
  266PNCE   C6B 2389   1.933  12.578   7.406  0.2950 -0.0133 -0.1150
  267PNCE   AM1 2390  15.221  11.858   8.661 -0.2074 -0.0720 -0.0447
  267PNCE   AM2 2391  15.203  11.596   8.851  0.1764 -0.1433  0.1608
  267PNCE   T1A 2392  15.076  12.069   8.207  0.0462  0.0828 -0.2826
  267PNCE   C2A 2393  14.883  12.140   7.821 -0.0018 -0.3002  0.1277
  267PNCE   C3A 2394  14.494  12.141   7.636 -0.0847  0.2071  0.0074
  267PNCE   C1B 2395  15.381  11.404   8.430 -0.2119 -0.1558 -0.0347
  267PNCE   C2B 2396  15.411  11.639   8.016  0.1586  0.0417  0.0401
  267PNCE   C3B 2397  15.396  11.797   7.595  0.3495  0.1823  0.0340
  267PNCE   D4B 2398  15.347  11.661   7.204 -0.0158  0.1368 -0.0794
  267PNCE   C5B 2399  14.966  11.469   7.038  0.2974 -0.4242  0.0427
  267PNCE   C6B 2400  14.628  11.256   7.053 -0.1180 -0.1261  0.0994
  268CHOL   ROH 2401   8.593   7.538   4.878  0.0899  0.1339 -0.0281
  268CHOL    R1 2402   8.820   7.538   5.048  0.1352  0.1617 -0.0881
  268CHOL    R2 2403   9.009   7.739   5.042 -0.0028  0.2984  0.0098
  268CHOL    R3 2404   8.955   7.754   5.308  0.0549  0.0616  0.0374
  268CHOL    R4 2405   9.207   7.900   5.275 -0.0915  0.3238  0.0680
  268CHOL    R5 2406   9.169   7.736   5.414  0.1015  0.1898 -0.0349
  268CHOL    C1 2407   9.271   8.009   5.660 -0.0890  0.1163  0.1278
  268CHOL    C2 2408   9.173   8.095   6.094 -0.0401  0.2537 -0.0998
  269XCA    COO 2409  15.022   0.828   8.833 -0.0704  0.1974 -0.2484
  269XCA     C1 2410  14.977   1.259   8.597 -0.1646  0.0476 -0.1312
  269XCA     C2 2411  15.338   1.460   8.232 -0.0486  0.4282 -0.0574
  269XCA     C3 2412  15.563   1.218   7.931  0.0116 -0.1197 -0.0542
  269XCA     C4 2413  15.662   0.923   7.649 -0.4889  0.2306 -0.0848
  269XCA     C5 2414  15.792   0.727   7.296 -0.3237 -0.2117 -0.3410
  269XCA     C6 2415  15.594   0.651   6.994  0.2113  0.0240  0.1924
  270CHOL   ROH 2416   5.196   1.550   5.201  0.0713  0.0729  0.1083
  270CHOL    R1 2417   5.005   1.621   5.397 -0.0314 -0.1088  0.0782
  270CHOL    R2 2418   4.809   1.446   5.485  0.1706 -0.3300  0.1127
  270CHOL    R3 2419   4.912   1.506   5.729  0.0896 -0.1401  0.1003
  270CHOL    R4 2420   4.660   1.370   5.788  0.0507 -0.0463  0.1263
  270CHOL    R5 2421   4.722   1.565   5.862  0.0541  0.0042 -0.0169
  270CHOL    C1 2422   4.671   1.383   6.193 -0.0953  0.2971  0.1225
  270CHOL    C2 2423   4.419   1.162   6.408  0.1689 -0.1134 -0.2107
  271XCA    COO 2424   5.948   5.242   8.189  0.1309 -0.0965  0.0785
  271XCA     C1 2425   5.924   5.280   7.788  0.0637 -0.1576 -0.1880
  271XCA     C2 2426   6.129   5.408   7.455  0.0329  0.0048  0.1793
  271XCA     C3 2427   6.341   5.352   7.129  0.0695 -0.0201 -0.1774
  271XCA     C4 2428   6.617   5.324   6.833  0.1919  0.1043 -0.1550
  271XCA     C5 2429   6.905   5.530   6.575  0.2290 -0.0986 -0.2818
  271XCA     C6 2430   7.038   5.894   6.454 -0.0203 -0.0476  0.0684
  272PNCE   AM1 2431   3.904   1.238   8.891  0.1746 -0.2066 -0.0308
  272PNCE   AM2 2432   3.617   1.391   8.951  0.1807  0.1584 -0.0983
  272PNCE   T1A 2433   3.855   0.961   8.489 -0.1099 -0.1610  0.0957
  272PNCE   C2A 2434   3.940   0.815   8.059 -0.1778 -0.1130  0.1589
  272PNCE   C3A 2435   4.006   0.910   7.662  0.2268 -0.1502  0.1122
  272PNCE   C1B 2436   3.549   1.335   8.437  0.1306  0.0422 -0.0748
  272PNCE   C2B 2437   3.390   1.416   8.159 -0.0130  0.1577  0.0261
  272PNCE   C3B 2438   3.393   1.706   7.816  0.1458  0.1360 -0.3754
  272PNCE   D4B 2439   3.547   2.001   7.501  0.0151  0.0623 -0.0585
  272PNCE   C5B 2440   3.191   2.247   7.372 -0.0373 -0.4358  0.1006
  272PNCE   C6B 2441   2.963   2.611   7.369 -0.0845 -0.1289  0.4627
  273CHOL   ROH 2442   0.405  11.278   6.361 -0.0238 -0.1417 -0.1551
  273CHOL    R1 2443   0.677  11.270   6.284 -0.0052 -0.1556 -0.0852
  273CHOL    R2 2444   0.880  11.371   6.442 -0.0490 -0.1335 -0.0532
  273CHOL    R3 2445   0.984  11.122   6.411 -0.0342 -0.1368  0.0125
  273CHOL    R4 2446   1.215  11.292   6.476 -0.0793 -0.1458  0.2516
  273CHOL    R5 2447   1.195  11.159   6.304  0.0722 -0.1272  0.2104
  273CHOL    C1 2448   1.507  11.011   6.467 -0.0831 -0.1560  0.4908
  273CHOL    C2 2449   1.812  11.272   6.627 -0.3902  0.1160 -0.3759
  274CHOL   ROH 2450   3.138  15.404   4.732 -0.0722 -0.0459 -0.1626
  274CHOL    R1 2451   3.273  15.301   4.958 -0.0287  0.1294 -0.1083
  274CHOL    R2 2452   3.273  15.430   5.203 -0.2541  0.1564 -0.1236
  274CHOL    R3 2453   3.182  15.190   5.293 -0.0128  0.0599 -0.1261
  274CHOL    R4 2454   3.265  15.334   5.535 -0.3736  0.2427 -0.1002
  274CHOL    R5 2455   3.329  15.135   5.474 -0.0685  0.3023  0.0001
  274CHOL    C1 2456   3.175  15.054   5.813 -0.2167  0.2023 -0.0888
  274CHOL    C2 2457   3.284  14.735   5.951  0.1169  0.1276 -0.0661
  275CHOL   ROH 2458  13.050   6.028   4.520 -0.0156  0.3323 -0.0255
  275CHOL    R1 2459  12.843   5.965   4.701 -0.0119  0.2375 -0.0544
  275CHOL    R2 2460  12.879   5.968   4.975 -0.0108  0.1086 -0.0551
  275CHOL    R3 2461  12.665   6.136   4.969 -0.0189  0.1023  0.0289
  275CHOL    R4 2462  12.685   6.049   5.249  0.0976  0.1013  0.0252
  275CHOL    R5 2463  12.508   6.037   5.121  0.0446  0.0951  0.0935
  275CHOL    C1 2464  12.370   6.253   5.403  0.1529  0.0912  0.1508
  275CHOL    C2 2465  12.284   6.344   5.808  0.2204  0.0817  0.0573
  276PNCE   AM1 2466  11.251  10.331   8.179 -0.0148  0.2481  0.0090
  276PNCE   AM2 2467  11.343  10.590   8.194  0.0339 -0.0577  0.1453
  276PNCE   T1A 2468  10.950  10.311   7.957 -0.3248 -0.2693 -0.0698
  276PNCE   C2A 2469  10.884  10.178   7.564 -0.2163  0.1393 -0.0479
  276PNCE   C3A 2470  10.955  10.370   7.136  0.1066 -0.0041  0.0851
  276PNCE   C1B 2471  11.229  10.576   7.717 -0.3764  0.2930  0.1280
  276PNCE   C2B 2472  11.385  10.606   7.278  0.0663 -0.3148  0.1989
  276PNCE   C3B 2473  11.573  10.806   6.878  0.1734  0.1658  0.1431
  276PNCE   D4B 2474  11.815  10.807   6.490  0.1960  0.0506 -0.2302
  276PNCE   C5B 2475  12.234  10.861   6.421 -0.1697  0.3119  0.0225
  276PNCE   C6B 2476  12.569  10.687   6.472 -0.1865 -0.3271 -0.2488
  277PNCE   AM1 2477   2.268   7.501   8.522 -0.2238  0.3233  0.1451
  277PNCE   AM2 2478   2.512   7.187   8.482 -0.2280 -0.2887 -0.0518
  277PNCE   T1A 2479   2.045   7.764   8.185  0.0255  0.0898 -0.1419
  277PNCE   C2A 2480   1.876   7.666   7.844 -0.1730 -0.0840  0.2517
  277PNCE   C3A 2481   1.766   7.605   7.396  0.0769  0.0425 -0.2239
  277PNCE   C1B 2482   2.649   7.449   8.149 -0.2008  0.0420 -0.2510
  277PNCE   C2B 2483   2.509   7.804   7.818 -0.1282  0.1310 -0.2857
  277PNCE   C3B 2484   2.611   8.135   7.512  0.0122 -0.0917  0.4832
  277PNCE   D4B 2485   2.658   8.305   7.190  0.0697  0.0376 -0.2138
  277PNCE   C5B 2486   3.056   8.364   6.972 -0.0124 -0.0086 -0.1445
  277PNCE   C6B 2487   3.389   8.640   6.685  0.1038  0.0184  0.0605
  278PNCE   AM1 2488  12.321   4.537   7.977 -0.1483  0.1818 -0.5523
  278PNCE   AM2 2489  12.060   4.447   7.886 -0.2735  0.1144 -0.1629
  278PNCE   T1A 2490  12.366   4.309   7.539 -0.1267  0.3886 -0.3035
  278PNCE   C2A 2491  12.269   4.053   7.132  0.0627  0.0801 -0.0319
  278PNCE   C3A 2492  12.305   3.560   7.033  0.0201 -0.2928 -0.1714
  278PNCE   C1B 2493  11.900   4.365   7.442  0.2304 -0.0900 -0.0603
  278PNCE   C2B 2494  11.776   4.177   7.073  0.1859  0.0004  0.3151
  278PNCE   C3B 2495  11.807   3.882   6.823 -0.0543 -0.1455  0.1389
  278PNCE   D4B 2496  12.066   3.725   6.407  0.0223  0.1625 -0.2268
  278PNCE   C5B 2497  12.397   4.045   6.093  0.0793  0.0145 -0.2243
  278PNCE   C6B 2498  12.530   4.195   5.680 -0.1384 -0.6169 -0.1204
  279CHOL   ROH 2499   0.017   7.302   7.810 -0.1137 -0.2050 -0.1989
  279CHOL    R1 2500   0.123   7.218   7.562 -0.0551 -0.1661 -0.1875
  279CHOL    R2 2501   0.187   7.396   7.360  0.0518 -0.1283 -0.1228
  279CHOL    R3 2502   0.429   7.273   7.373  0.0181 -0.1898 -0.0759
  279CHOL    R4 2503   0.394   7.339   7.089  0.2001  0.0402 -0.0467
  279CHOL    R5 2504   0.440   7.143   7.173  0.1085 -0.0352 -0.1727
  279CHOL    C1 2505   0.742   7.190   6.944  0.2550  0.0807  0.0416
  279CHOL    C2 2506   0.974   6.911   6.901  0.0158  0.1825  0.3902
  280PNCE   AM1 2507  13.835   3.547   8.685  0.2064  0.1542 -0.0390
  280PNCE   AM2 2508  14.188   3.661   8.472  0.1786 -0.1795  0.0736
  280PNCE   T1A 2509  13.648   3.230   8.527  0.1573  0.3038 -0.1634
  280PNCE   C2A 2510  13.460   2.966   8.264 -0.1134 -0.1115  0.0986
  280PNCE   C3A 2511  13.330   2.577   8.200  0.1298 -0.1058  0.3550
  280PNCE   C1B 2512  13.962   3.313   8.166 -0.1709  0.2843 -0.0396
  280PNCE   C2B 2513  14.085   3.039   7.793  0.0019  0.1367 -0.2072
  280PNCE   C3B 2514  14.532   3.030   7.560  0.0462 -0.0267  0.0200
  280PNCE   D4B 2515  14.642   2.741   7.156 -0.0034 -0.0970  0.3252
  280PNCE   C5B 2516  14.697   2.746   6.660 -0.1650 -0.0757 -0.0440
  280PNCE   C6B 2517  14.738   2.506   6.241  0.2154  0.0733  0.0450
  281XCA    COO 2518  15.812   8.373   4.288  0.0954 -0.0664 -0.0462
  281XCA     C1 2519  15.572   8.460   4.735  0.1236 -0.1784 -0.0834
  281XCA     C2 2520  15.416   8.445   5.200  0.3539 -0.0022 -0.0328
  281XCA     C3 2521  15.538   8.634   5.664 -0.1635  0.3584  0.1282
  281XCA     C4 2522  15.520   8.843   6.086  0.1488  0.1316 -0.2289
  281XCA     C5 2523  15.796   9.009   6.445 -0.1146  0.1849  0.0532
  281XCA     C6 2524  16.154   9.061   6.771 -0.0235  0.2691  0.1019
  282CHOL   ROH 2525   3.128   2.632   5.476 -0.0550  0.2662  0.1957
  282CHOL    R1 2526   3.180   2.493   5.717 -0.0135  0.1170  0.1033
  282CHOL    R2 2527   3.281   2.619   5.942  0.1842 -0.0520  0.1157
  282CHOL    R3 2528   3.062   2.509   6.061  0.1758  0.0276  0.1723
  282CHOL    R4 2529   3.289   2.417   6.223  0.1910 -0.1565  0.0403
  282CHOL    R5 2530   3.136   2.292   6.132  0.0830 -0.0373  0.0641
  282CHOL    C1 2531   3.089   2.197   6.498  0.1872 -0.1428  0.0496
  282CHOL    C2 2532   2.932   2.122   6.932 -0.1239  0.6379  0.0729
  283CHOL   ROH 2533   1.856  12.707   5.728  0.3409 -0.0346 -0.1892
  283CHOL    R1 2534   1.825  12.988   5.714  0.1656 -0.0465 -0.0914
  283CHOL    R2 2535   1.749  13.140   5.931  0.0648 -0.1680 -0.0371
  283CHOL    R3 2536   1.976  13.279   5.873 -0.0178 -0.0091  0.0139
  283CHOL    R4 2537   1.860  13.418   6.104 -0.0026 -0.2736  0.1778
  283CHOL    R5 2538   1.918  13.507   5.914 -0.1069 -0.0721  0.2424
  283CHOL    C1 2539   2.138  13.709   6.152 -0.1194 -0.1858  0.3508
  283CHOL    C2 2540   2.510  13.912   6.169  0.1701 -0.1302 -0.0615
  284CHOL   ROH 2541  10.843  14.594   5.034 -0.1685  0.1774 -0.0793
  284CHOL    R1 2542  10.859  14.620   5.315 -0.2619  0.1800 -0.0731
  284CHOL    R2 2543  10.635  14.612   5.479 -0.2971 -0.0866 -0.1197
  284CHOL    R3 2544  10.775  14.416   5.605 -0.0949  0.0622 -0.1086
  284CHOL    R4 2545  10.567  14.492   5.796 -0.1699 -0.1570 -0.1190
  284CHOL    R5 2546  10.781  14.484   5.834 -0.1679  0.0680 -0.1139
  284CHOL    C1 2547  10.659  14.238   6.098  0.0938 -0.0580 -0.1082
  284CHOL    C2 2548  10.648  13.966   6.429  0.0925  0.1849  0.0750
  285PNCE   AM1 2549   9.441   8.657   8.138  0.0129 -0.0546 -0.4075
  285PNCE   AM2 2550   9.677   8.889   8.152 -0.1619  0.1227 -0.1685
  285PNCE   T1A 2551   9.511   8.634   7.726  0.1440 -0.0375  0.1854
  285PNCE   C2A 2552   9.502   8.893   7.413  0.3222 -0.1588 -0.0206
  285PNCE   C3A 2553   9.855   8.890   7.154 -0.1186  0.0009 -0.0776
  285PNCE   C1B 2554   9.695   9.043   7.806  0.0718 -0.0585  0.0050
  285PNCE   C2B 2555   9.689   9.350   7.539  0.0970 -0.0106 -0.0402
  285PNCE   C3B 2556   9.816   9.699   7.477 -0.2600  0.0097 -0.0917
  285PNCE   D4B 2557   9.957  10.047   7.719  0.0474  0.0795  0.0842
  285PNCE   C5B 2558   9.606  10.224   7.772 -0.1183  0.3562 -0.3065
  285PNCE   C6B 2559   9.668  10.695   7.621  0.3705 -0.1887 -0.3741
  286CHOL   ROH 2560   4.590   4.353   8.091  0.0516  0.0479  0.0310
  286CHOL    R1 2561   4.719   4.352   7.839 -0.0700  0.0092 -0.0304
  286CHOL    R2 2562   4.994   4.357   7.813 -0.0904  0.1371 -0.1638
  286CHOL    R3 2563   4.951   4.135   7.662 -0.0456  0.0540 -0.0575
  286CHOL    R4 2564   5.238   4.188   7.637 -0.0835  0.2453 -0.2611
  286CHOL    R5 2565   5.096   4.162   7.473 -0.1813  0.0934 -0.1652
  286CHOL    C1 2566   5.341   3.881   7.393 -0.0375  0.2304 -0.2181
  286CHOL    C2 2567   5.492   3.856   7.057  0.1807  0.0705 -0.1598
  287PNCE   AM1 2568   8.386  14.633   8.797  0.0723 -0.0063 -0.0661
  287PNCE   AM2 2569   8.117  14.763   8.549 -0.0728 -0.2149 -0.0195
  287PNCE   T1A 2570   8.556  14.446   8.362  0.2813 -0.0845 -0.1768
  287PNCE   C2A 2571   8.591  14.581   7.972 -0.3926  0.2936 -0.0037
  287PNCE   C3A 2572   8.482  14.703   7.603  0.1873  0.1800  0.2052
  287PNCE   C1B 2573   8.117  14.695   8.196 -0.0793 -0.0595  0.1811
  287PNCE   C2B 2574   8.038  14.564   7.834  0.1642  0.1606 -0.0355
  287PNCE   C3B 2575   8.062  14.788   7.346  0.2312  0.0676 -0.0090
  287PNCE   D4B 2576   8.032  14.754   6.853 -0.3630  0.1943 -0.0602
  287PNCE   C5B 2577   7.895  15.077   6.636  0.0326  0.0199  0.3420
  287PNCE   C6B 2578   7.789  15.257   6.219  0.1222 -0.3923  0.1991
  288XCA    COO 2579   3.605   8.081   8.466 -0.2896 -0.1393  0.0816
  288XCA     C1 2580   3.514   8.061   8.058  0.3284 -0.4431 -0.1291
  288XCA     C2 2581   3.598   8.043   7.622  0.0251  0.2360  0.0370
  288XCA     C3 2582   3.586   7.776   7.255 -0.2667 -0.2393  0.2521
  288XCA     C4 2583   3.263   7.859   6.921  0.0798  0.0275  0.0639
  288XCA     C5 2584   3.449   8.169   6.674 -0.1677  0.3360 -0.0146
  288XCA     C6 2585   3.708   8.378   6.396 -0.3421 -0.3225 -0.1209
  289CHOL   ROH 2586  11.708   9.333   7.959 -0.0689 -0.2784 -0.2091
  289CHOL    R1 2587  11.608   9.351   7.695 -0.0308 -0.1104 -0.2127
  289CHOL    R2 2588  11.461   9.567   7.606  0.0221 -0.0345 -0.1091
  289CHOL    R3 2589  11.650   9.575   7.411  0.0466  0.0427 -0.0832
  289CHOL    R4 2590  11.407   9.675   7.282  0.0021 -0.1081 -0.1307
  289CHOL    R5 2591  11.533   9.512   7.212  0.1046 -0.0512 -0.0911
  289CHOL    C1 2592  11.553   9.745   6.910  0.0137 -0.0785 -0.1190
  289CHOL    C2 2593  11.246   9.918   6.690 -0.0442  0.1577 -0.0909
  290PNCE   AM1 2594   3.806   4.326   8.704 -0.1938  0.0121 -0.3023
  290PNCE   AM2 2595   4.110   4.275   8.652 -0.2696  0.1589  0.0852
  290PNCE   T1A 2596   3.403   4.066   8.789  0.1403  0.0462 -0.0729
  290PNCE   C2A 2597   3.176   3.870   9.101  0.2257 -0.1387 -0.2939
  290PNCE   C3A 2598   3.249   3.785   9.571  0.1635  0.3115 -0.0728
  290PNCE   C1B 2599   4.183   3.995   8.330  0.1065  0.1415  0.1143
  290PNCE   C2B 2600   4.066   3.607   8.104 -0.2584  0.2262 -0.1931
  290PNCE   C3B 2601   4.015   3.442   7.679  0.0114  0.2039 -0.0554
  290PNCE   D4B 2602   3.762   3.326   7.275 -0.1099 -0.2121 -0.0565
  290PNCE   C5B 2603   3.365   3.309   7.130  0.1590 -0.1074 -0.0949
  290PNCE   C6B 2604   3.116   3.134   6.813  0.0295 -0.0498  0.2482
  291XCA    COO 2605   7.921   3.774   4.647  0.0679 -0.2267  0.2239
  291XCA     C1 2606   7.771   3.681   5.147 -0.2749  0.1179  0.1391
  291XCA     C2 2607   7.745   3.770   5.563  0.1050  0.3099 -0.1683
  291XCA     C3 2608   7.986   3.653   6.008 -0.0042  0.1418 -0.0038
  291XCA     C4 2609   8.395   3.873   6.061 -0.0955 -0.0655 -0.2491
  291XCA     C5 2610   8.544   4.247   5.837  0.0390 -0.0550 -0.1949
  291XCA     C6 2611   8.712   4.600   5.535  0.1423  0.1335  0.1772
  292CHOL   ROH 2612   2.333  14.136   4.787  0.2779 -0.0186 -0.0467
  292CHOL    R1 2613   2.519  14.192   4.993  0.1821  0.0428  0.0249
  292CHOL    R2 2614   2.614  14.446   5.043  0.1560  0.0608 -0.0030
  292CHOL    R3 2615   2.526  14.395   5.295  0.0367  0.1296 -0.0298
  292CHOL    R4 2616   2.698  14.631   5.322  0.0413  0.1169 -0.0056
  292CHOL    R5 2617   2.715  14.445   5.434 -0.0261  0.1451  0.0458
  292CHOL    C1 2618   2.664  14.690   5.722 -0.1375  0.2144 -0.0323
  292CHOL    C2 2619   2.834  14.827   6.106 -0.4433 -0.0157  0.0593
  293CHOL   ROH 2620   0.710   0.101   4.963  0.3464 -0.1033 -0.1415
  293CHOL    R1 2621   0.795   0.039   5.225  0.1779  0.0818 -0.0415
  293CHOL    R2 2622   0.708   0.180   5.447 -0.1663  0.0740 -0.1708
  293CHOL    R3 2623   0.638  -0.067   5.536  0.0115  0.0326 -0.1393
  293CHOL    R4 2624   0.681   0.090   5.780 -0.3703  0.1881 -0.1543
  293CHOL    R5 2625   0.773  -0.101   5.730 -0.1206  0.2574  0.0019
  293CHOL    C1 2626   0.599  -0.195   6.057 -0.3221  0.2157 -0.1151
  293CHOL    C2 2627   0.653  -0.402   6.496  0.2695  0.0400  0.0239
  294PNCE   AM1 2628   6.907   7.240   8.140  0.5442  0.1368  0.2310
  294PNCE   AM2 2629   6.951   6.777   8.100 -0.1074 -0.3864 -0.3600
  294PNCE   T1A 2630   7.089   7.515   7.724  0.0367 -0.2529  0.2333
  294PNCE   C2A 2631   7.103   7.627   7.272  0.0601  0.3142  0.0915
  294PNCE   C3A 2632   7.397   7.738   6.941 -0.1470 -0.1471 -0.1562
  294PNCE   C1B 2633   6.940   7.005   7.708 -0.0690  0.0775 -0.0824
  294PNCE   C2B 2634   6.956   7.104   7.256 -0.4246 -0.1367  0.1662
  294PNCE   C3B 2635   6.788   6.995   6.770  0.1954  0.0246 -0.0902
  294PNCE   D4B 2636   6.677   6.658   6.522  0.1216 -0.2218  0.1889
  294PNCE   C5B 2637   6.364   6.474   6.740 -0.4465  0.0470  0.0041
  294PNCE   C6B 2638   6.162   6.409   7.162 -0.1266  0.1790  0.1428
  295CHOL   ROH 2639  13.538   5.826   6.640 -0.1913 -0.2498 -0.1351
  295CHOL    R1 2640  13.517   5.817   6.358 -0.1157 -0.1312 -0.1460
  295CHOL    R2 2641  13.677   5.968   6.192  0.0004 -0.1353 -0.0451
  295CHOL    R3 2642  13.732   5.727   6.079 -0.0748 -0.1183 -0.1172
  295CHOL    R4 2643  13.850   5.923   5.896  0.2557 -0.1170  0.0991
  295CHOL    R5 2644  13.710   5.765   5.844  0.1852  0.0194 -0.1203
  295CHOL    C1 2645  14.002   5.671   5.618  0.3338 -0.0904  0.1154
  295CHOL    C2 2646  14.126   5.634   5.241  0.1679  0.1986  0.0030
  296PNCE   AM1 2647   5.620   5.598   8.468 -0.1007 -0.1910 -0.2274
  296PNCE   AM2 2648   5.819   5.345   8.608  0.2095 -0.1385  0.3137
  296PNCE   T1A 2649   5.604   5.632   7.989 -0.2291  0.0008  0.0955
  296PNCE   C2A 2650   5.325   5.799   7.777  0.0941 -0.2018  0.2630
  296PNCE   C3A 2651   4.993   6.140   7.835  0.1053  0.1515 -0.1600
  296PNCE   C1B 2652   6.015   5.689   8.171 -0.2243  0.2505  0.1246
  296PNCE   C2B 2653   6.443   5.571   7.930  0.1686 -0.2318  0.0493
  296PNCE   C3B 2654   6.718   5.462   7.660 -0.2499  0.2557 -0.2525
  296PNCE   D4B 2655   6.859   5.294   7.324  0.0412  0.0526 -0.1456
  296PNCE   C5B 2656   6.927   4.940   7.057 -0.5092  0.1354  0.1164
  296PNCE   C6B 2657   6.822   4.480   6.801 -0.4099  0.4863  0.4426
  297XCA    COO 2658   3.340  14.226   4.423 -0.0637 -0.2430  0.0759
  297XCA     C1 2659   3.284  13.948   4.866 -0.1307  0.1217 -0.6130
  297XCA     C2 2660   3.331  13.858   5.361 -0.0704  0.0271  0.0503
  297XCA     C3 2661   3.264  13.704   5.766 -0.0032  0.2495  0.0923
  297XCA     C4 2662   3.088  13.769   6.255  0.5362 -0.1148 -0.1467
  297XCA     C5 2663   2.735  13.486   6.441 -0.0014  0.0642  0.2118
  297XCA     C6 2664   2.298  13.495   6.536  0.1120 -0.0277  0.1222
  298CHOL   ROH 2665  10.623  12.066   4.903 -0.1122 -0.1005 -0.0688
  298CHOL    R1 2666  10.621  12.174   5.165  0.0209 -0.0189 -0.1005
  298CHOL    R2 2667  10.524  12.034   5.383 -0.0260  0.1135 -0.0350
  298CHOL    R3 2668  10.769  12.088   5.486  0.0363 -0.0224 -0.1086
  298CHOL    R4 2669  10.608  12.003   5.716  0.1005 -0.0741 -0.0830
  298CHOL    R5 2670  10.722  12.188   5.699  0.1585 -0.1063 -0.0419
  298CHOL    C1 2671  10.887  12.036   6.008  0.2325 -0.3109 -0.1800
  298CHOL    C2 2672  10.893  12.313   6.207 -0.2381  0.1954 -0.0878
  299PNCE   AM1 2673  14.081   7.743   7.949  0.4009  0.4080  0.1091
  299PNCE   AM2 2674  13.787   7.589   8.039 -0.0169 -0.0575  0.0412
  299PNCE   T1A 2675  13.957   8.120   7.669 -0.2296 -0.1316 -0.1808
  299PNCE   C2A 2676  14.034   8.326   7.272 -0.0092  0.0010 -0.2418
  299PNCE   C3A 2677  14.236   8.601   6.909  0.0367  0.0301  0.2024
  299PNCE   C1B 2678  13.653   7.661   7.575  0.1165  0.1208 -0.1335
  299PNCE   C2B 2679  13.816   7.907   7.195 -0.0407 -0.0363 -0.1032
  299PNCE   C3B 2680  14.163   8.033   6.915 -0.1915  0.0770  0.3132
  299PNCE   D4B 2681  14.310   8.177   6.620 -0.0026 -0.4019 -0.0699
  299PNCE   C5B 2682  14.096   8.472   6.436  0.1647  0.2289  0.2511
  299PNCE   C6B 2683  13.673   8.698   6.479  0.0037 -0.2193  0.2431
  300XCA    COO 2684   6.135  15.844   4.495 -0.0684 -0.0175  0.0461
  300XCA     C1 2685   5.885  15.888   4.992 -0.3741 -0.1408  0.3461
  300XCA     C2 2686   5.869  15.993   5.375  0.3733  0.0811  0.0137
  300XCA     C3 2687   5.672  15.822   5.713  0.0135 -0.2837  0.1998
  300XCA     C4 2688   5.351  15.753   5.963 -0.1897  0.3307 -0.0511
  300XCA     C5 2689   4.967  15.920   6.195  0.0807 -0.0117 -0.2454
  300XCA     C6 2690   4.779  16.172   6.460 -0.0227 -0.1804  0.1793
  301CHOL   ROH 2691   4.946   5.574   8.170  0.0614  0.1955 -0.0638
  301CHOL    R1 2692   5.027   5.478   7.916 -0.1727 -0.0448 -0.0527
  301CHOL    R2 2693   4.847   5.386   7.727 -0.3962  0.2319  0.0185
  301CHOL    R3 2694   4.969   5.570   7.569 -0.0767 -0.0450 -0.0691
  301CHOL    R4 2695   4.771   5.442   7.395 -0.3510  0.2539  0.0117
  301CHOL    R5 2696   4.984   5.464   7.355 -0.3093 -0.1548 -0.0348
  301CHOL    C1 2697   4.841   5.648   7.052 -0.0248  0.0068 -0.0745
  301CHOL    C2 2698   5.060   5.610   6.586 -0.0580  0.0155 -0.4680
  302CHOL   ROH 2699   8.940  10.768   6.241  0.0095  0.0963 -0.0205
  302CHOL    R1 2700   8.700  10.732   6.386 -0.0064  0.0595 -0.0560
  302CHOL    R2 2701   8.603  10.921   6.563 -0.0360  0.0233 -0.0338
  302CHOL    R3 2702   8.379  10.901   6.411 -0.0172  0.0407 -0.0642
  302CHOL    R4 2703   8.294  11.050   6.649 -0.0612 -0.0411 -0.0270
  302CHOL    R5 2704   8.202  10.869   6.569 -0.0302 -0.0297 -0.0918
  302CHOL    C1 2705   7.904  11.107   6.556 -0.0582 -0.0624 -0.0517
  302CHOL    C2 2706   7.730  10.754   6.688  0.0190  0.0481  0.0237
  303XCA    COO 2707   8.004   9.957   4.804  0.0238  0.1930  0.2932
  303XCA     C1 2708   8.005  10.200   5.238 -0.1911 -0.0263 -0.0072
  303XCA     C2 2709   8.149  10.210   5.722 -0.0711 -0.2721  0.2929
  303XCA     C3 2710   7.958  10.116   6.156 -0.0790 -0.4701 -0.3243
  303XCA     C4 2711   8.128   9.909   6.533 -0.0728  0.2431  0.0277
  303XCA     C5 2712   8.359   9.796   6.704  0.0099 -0.0351  0.3198
  303XCA     C6 2713   8.655  10.004   7.009  0.0152  0.1085  0.0882
  304PNCE   AM1 2714  13.001  14.036   8.288 -0.2063  0.4053  0.2475
  304PNCE   AM2 2715  13.144  14.070   8.725 -0.2194  0.0379 -0.0142
  304PNCE   T1A 2716  13.161  14.283   8.011 -0.1717 -0.1458  0.0547
  304PNCE   C2A 2717  13.277  14.652   7.812  0.2294 -0.1287  0.2022
  304PNCE   C3A 2718  13.447  14.850   7.442  0.1152 -0.1627 -0.0308
  304PNCE   C1B 2719  13.319  14.430   8.415  0.2084  0.1294  0.0637
  304PNCE   C2B 2720  13.600  14.535   8.131 -0.2795  0.2413 -0.3974
  304PNCE   C3B 2721  13.775  14.657   7.762  0.0252 -0.3613  0.3536
  304PNCE   D4B 2722  13.978  14.710   7.373  0.1154 -0.2145  0.0352
  304PNCE   C5B 2723  14.180  14.267   7.258 -0.0307  0.0175 -0.0874
  304PNCE   C6B 2724  14.596  13.971   7.380 -0.2375  0.1821  0.0046
  305CHOL   ROH 2725  11.720   1.172   7.341  0.0974  0.4583  0.2528
  305CHOL    R1 2726  11.461   1.118   7.240  0.2616  0.1094 -0.0047
  305CHOL    R2 2727  11.237   1.259   7.323 -0.0443 -0.3288 -0.0641
  305CHOL    R3 2728  11.206   1.301   7.056  0.1032 -0.1555 -0.0559
  305CHOL    R4 2729  10.942   1.354   7.170  0.0088 -0.3356 -0.1731
  305CHOL    R5 2730  10.987   1.218   7.007  0.1611 -0.2079 -0.2445
  305CHOL    C1 2731  10.741   1.449   6.831  0.1782 -0.1769 -0.2289
  305CHOL    C2 2732  10.462   1.571   6.618  0.0216  0.3306 -0.0318
  306CHOL   ROH 2733   8.143   1.604   7.468  0.2094  0.0593 -0.1704
  306CHOL    R1 2734   7.989   1.535   7.240  0.1077  0.1325 -0.1245
  306CHOL    R2 2735   7.754   1.390   7.258  0.1772  0.0257 -0.0750
  306CHOL    R3 2736   7.652   1.600   7.119  0.0097  0.0681  0.1071
  306CHOL    R4 2737   7.428   1.414   7.146  0.0818 -0.0087  0.1876
  306CHOL    R5 2738   7.503   1.501   6.961 -0.0845  0.1056  0.1713
  306CHOL    C1 2739   7.143   1.626   6.951 -0.1310  0.0112  0.5114
  306CHOL    C2 2740   6.945   1.653   6.674  0.1214  0.0872 -0.0582
  307CHOL   ROH 2741  12.808   7.888   3.829 -0.1308 -0.0201 -0.0697
  307CHOL    R1 2742  12.842   8.035   4.069 -0.0582 -0.0807 -0.0430
  307CHOL    R2 2743  12.638   8.072   4.251 -0.0134 -0.0884  0.0041
  307CHOL    R3 2744  12.818   7.968   4.426  0.0029 -0.1563 -0.0519
  307CHOL    R4 2745  12.602   8.070   4.595  0.2115  0.1820  0.0335
  307CHOL    R5 2746  12.814   8.118   4.613  0.2800 -0.0189 -0.1451
  307CHOL    C1 2747  12.751   7.971   4.959  0.3578  0.2757 -0.0020
  307CHOL    C2 2748  12.783   7.944   5.396  0.2856  0.1075 -0.0966
  308XCA    COO 2749   5.112   8.317   8.700 -0.1754 -0.0293 -0.2159
  308XCA     C1 2750   5.243   8.108   8.369 -0.2448 -0.1189 -0.1102
  308XCA     C2 2751   5.092   8.047   7.909 -0.2602  0.0960  0.1866
  308XCA     C3 2752   5.134   8.273   7.548  0.0595  0.0299  0.2743
  308XCA     C4 2753   5.493   8.416   7.453  0.0093 -0.1323 -0.0072
  308XCA     C5 2754   5.932   8.224   7.483  0.2770  0.2737 -0.0962
  308XCA     C6 2755   6.212   8.061   7.145 -0.0616 -0.3399  0.1619
  309CHOL   ROH 2756   0.546   3.422   8.118  0.0388  0.2407  0.1456
  309CHOL    R1 2757   0.472   3.334   7.859  0.0346  0.2112  0.1564
  309CHOL    R2 2758   0.611   3.407   7.632  0.0307  0.1864  0.1446
  309CHOL    R3 2759   0.624   3.138   7.593  0.0315  0.1822  0.1763
  309CHOL    R4 2760   0.758   3.255   7.359 -0.0947  0.1573  0.0929
  309CHOL    R5 2761   0.593   3.112   7.356 -0.0844  0.1449  0.1959
  309CHOL    C1 2762   0.856   2.915   7.162 -0.1671  0.1363  0.0926
  309CHOL    C2 2763   0.873   2.918   6.828  0.0999 -0.1791 -0.1136
  310CHOL   ROH 2764   4.655   6.744   6.467 -0.2813  0.1762  0.2193
  310CHOL    R1 2765   4.784   6.789   6.715 -0.2599  0.0418  0.2342
  310CHOL    R2 2766   4.912   7.027   6.775  0.0385 -0.1096  0.2267
  310CHOL    R3 2767   4.748   7.022   6.992 -0.0060  0.1240  0.1990
  310CHOL    R4 2768   4.932   7.243   7.044  0.1928 -0.0353  0.1559
  310CHOL    R5 2769   4.890   7.076   7.176  0.0083  0.0522  0.2057
  310CHOL    C1 2770   4.790   7.365   7.404  0.2407  0.2273  0.0885
  310CHOL    C2 2771   4.930   7.612   7.616  0.2771 -0.0573  0.0343
  311XCA    COO 2772   1.815   6.466   4.981  0.0509 -0.1202 -0.0106
  311XCA     C1 2773   1.997   6.375   5.374  0.1050  0.0410  0.0208
  311XCA     C2 2774   1.987   6.368   5.795 -0.0524 -0.1994 -0.1499
  311XCA     C3 2775   2.211   6.140   6.195  0.1683  0.0819  0.0402
  311XCA     C4 2776   2.595   5.908   6.339 -0.0313  0.1087  0.2135
  311XCA     C5 2777   2.650   5.685   6.706  0.0099  0.1209 -0.1758
  311XCA     C6 2778   2.802   5.353   6.946  0.0778  0.3557  0.0110
  312PNCE   AM1 2779  10.799  12.792   9.084 -0.1884 -0.1375  0.0155
  312PNCE   AM2 2780  10.679  13.001   9.125 -0.1742  0.2588  0.0332
  312PNCE   T1A 2781  10.880  12.463   8.816 -0.0726  0.0188  0.1308
  312PNCE   C2A 2782  10.775  12.427   8.437 -0.0774  0.2163 -0.1453
  312PNCE   C3A 2783  10.888  12.541   7.999  0.1063  0.4059 -0.1843
  312PNCE   C1B 2784  10.608  12.936   8.668 -0.0004  0.1399 -0.1469
  312PNCE   C2B 2785  10.805  12.995   8.217 -0.0561 -0.1952 -0.1460
  312PNCE   C3B 2786  10.831  13.216   7.808 -0.0371  0.1187  0.0990
  312PNCE   D4B 2787  10.425  13.298   7.599  0.1576 -0.1357 -0.0924
  312PNCE   C5B 2788  10.293  13.461   7.240  0.1628 -0.1973  0.2334
  312PNCE   C6B 2789   9.960  13.788   7.063 -0.0188  0.2146 -0.0805
  313PNCE   AM1 2790  14.759  12.098   8.943  0.0313 -0.3084  0.0775
  313PNCE   AM2 2791  15.102  12.130   9.047 -0.0632  0.1512 -0.1474
  313PNCE   T1A 2792  14.786  11.934   8.660 -0.0868  0.0404  0.2265
  313PNCE   C2A 2793  14.865  11.658   8.315  0.0968  0.2547  0.2991
  313PNCE   C3A 2794  14.905  11.618   7.917  0.1776  0.0413  0.0711
  313PNCE   C1B 2795  14.944  12.578   8.862  0.4343  0.0804 -0.0600
  313PNCE   C2B 2796  15.049  12.458   8.488 -0.2958  0.1292 -0.0395
  313PNCE   C3B 2797  15.147  12.589   8.082  0.0606 -0.0996  0.1808
  313PNCE   D4B 2798  15.125  12.587   7.539 -0.0498 -0.1393 -0.0090
  313PNCE   C5B 2799  15.089  12.243   7.328 -0.0081  0.1881 -0.3729
  313PNCE   C6B 2800  14.983  11.998   6.991  0.0334 -0.0422  0.1328
  314PNCE   AM1 2801   8.257   1.709   9.010  0.0202 -0.0117  0.0957
  314PNCE   AM2 2802   8.121   1.386   8.779 -0.2673  0.0047  0.1844
  314PNCE   T1A 2803   8.579   1.611   8.644  0.0775  0.0048 -0.0630
  314PNCE   C2A 2804   8.931   1.563   8.435 -0.1360 -0.1744  0.3448
  314PNCE   C3A 2805   9.219   1.582   8.160  0.1073  0.2075 -0.2041
  314PNCE   C1B 2806   8.348   1.222   8.410  0.0009  0.0041 -0.0127
  314PNCE   C2B 2807   8.597   0.877   8.164 -0.0792 -0.0863 -0.0235
  314PNCE   C3B 2808   8.991   0.554   7.955  0.0482  0.0571 -0.0126
  314PNCE   D4B 2809   9.259   0.295   8.132 -0.1747 -0.1999  0.4243
  314PNCE   C5B 2810   9.694   0.428   8.078 -0.0317 -0.1438  0.0838
  314PNCE   C6B 2811  10.056   0.447   7.838 -0.1377 -0.1803 -0.1306
  315XCA    COO 2812  11.253   3.265   9.056 -0.2401 -0.1809 -0.0563
  315XCA     C1 2813  11.155   3.370   8.596 -0.2051 -0.1040 -0.0942
  315XCA     C2 2814  11.032   3.338   8.156  0.0270 -0.0139  0.0831
  315XCA     C3 2815  10.842   3.361   7.772 -0.0022  0.2297  0.1874
  315XCA     C4 2816  10.686   3.218   7.384  0.0035 -0.0494  0.2108
  315XCA     C5 2817  10.718   2.932   7.064 -0.0840  0.2046 -0.0651
  315XCA     C6 2818  10.651   2.918   6.679  0.0660  0.2319  0.0717
  316PNCE   AM1 2819   9.000   5.748   8.035  0.3686 -0.2495  0.0449
  316PNCE   AM2 2820   9.138   5.450   8.133  0.0508  0.0843 -0.3053
  316PNCE   T1A 2821   9.095   5.889   7.602  0.4129  0.0970  0.0165
  316PNCE   C2A 2822   9.116   5.955   7.162  0.1369  0.0856 -0.4955
  316PNCE   C3A 2823   8.865   5.830   6.753  0.2147 -0.1221 -0.0546
  316PNCE   C1B 2824   9.082   4.997   7.920  0.1652 -0.2244  0.1560
  316PNCE   C2B 2825   9.219   5.038   7.487  0.1102  0.0090  0.1085
  316PNCE   C3B 2826   9.028   4.951   7.077  0.2555 -0.2992 -0.1268
  316PNCE   D4B 2827   9.154   4.762   6.692  0.1627  0.1040  0.2299
  316PNCE   C5B 2828   9.628   4.805   6.641  0.2564 -0.1070 -0.1024
  316PNCE   C6B 2829   9.985   4.780   6.637 -0.2226  0.1541  0.4096
  317XCA    COO 2830  12.213  12.201   8.900 -0.0494  0.2219  0.5045
  317XCA     C1 2831  12.605  12.142   8.720  0.3628 -0.0821  0.1210
  317XCA     C2 2832  12.896  12.320   8.360 -0.1316 -0.0902  0.1010
  317XCA     C3 2833  12.779  12.599   8.031 -0.0095  0.1150 -0.2158
  317XCA     C4 2834  12.525  12.870   7.851  0.1330  0.1064  0.0259
  317XCA     C5 2835  12.320  12.844   7.383  0.1814  0.2116  0.3655
  317XCA     C6 2836  12.266  12.771   6.925  0.0113  0.1986  0.0999
  318PNCE   AM1 2837  12.947   8.617   7.872  0.0379 -0.1810 -0.1934
  318PNCE   AM2 2838  13.199   8.829   8.091  0.0717 -0.2027  0.3110
  318PNCE   T1A 2839  13.153   8.793   7.622  0.0193  0.1237  0.0359
  318PNCE   C2A 2840  13.417   8.917   7.301 -0.0055  0.2193  0.0022
  318PNCE   C3A 2841  13.727   8.920   6.979  0.2026 -0.0077  0.2414
  318PNCE   C1B 2842  13.492   9.117   7.892  0.0696  0.0808 -0.2109
  318PNCE   C2B 2843  13.698   9.317   7.530 -0.3846 -0.0198 -0.1747
  318PNCE   C3B 2844  13.869   9.361   7.173 -0.0140 -0.1576 -0.3724
  318PNCE   D4B 2845  13.594   9.338   6.728 -0.0251 -0.0615  0.0885
  318PNCE   C5B 2846  13.747   9.205   6.361 -0.0527  0.0558  0.0423
  318PNCE   C6B 2847  13.965   8.869   6.096  0.0190 -0.2331 -0.3580
  319PNCE   AM1 2848   3.379  11.502   8.718 -0.2079  0.0565 -0.0120
  319PNCE   AM2 2849   3.739  11.508   8.609 -0.1416  0.1910 -0.0893
  319PNCE   T1A 2850   3.241  11.337   8.301 -0.2259  0.4004 -0.2830
  319PNCE   C2A 2851   3.042  11.185   7.935 -0.0950 -0.0797 -0.0182
  319PNCE   C3A 2852   3.122  11.141   7.534 -0.2129 -0.2332  0.3060
  319PNCE   C1B 2853   3.724  11.381   8.148  0.0218 -0.2890 -0.2723
  319PNCE   C2B 2854   3.546  11.323   7.781  0.2485  0.2158 -0.0834
  319PNCE   C3B 2855   3.669  11.167   7.461  0.0937  0.3789 -0.2303
  319PNCE   D4B 2856   3.901  10.906   7.205  0.1799 -0.0354  0.1046
  319PNCE   C5B 2857   4.052  10.501   7.235 -0.2304  0.1969  0.3203
  319PNCE   C6B 2858   4.230  10.082   7.006 -0.2028 -0.1053  0.1438
  320CHOL   ROH 2859   8.606   5.740   7.762  0.0783 -0.0074  0.0071
  320CHOL    R1 2860   8.554   5.935   7.563 -0.0791  0.0228  0.0778
  320CHOL    R2 2861   8.645   5.909   7.303 -0.1218  0.1558  0.0571
  320CHOL    R3 2862   8.382   5.945   7.243 -0.1549  0.0254  0.1155
  320CHOL    R4 2863   8.525   6.014   6.997 -0.2107  0.2831  0.1336
  320CHOL    R5 2864   8.379   6.138   7.101 -0.2858  0.1261  0.2399
  320CHOL    C1 2865   8.209   6.109   6.761 -0.2936  0.2349  0.2331
  320CHOL    C2 2866   8.069   6.083   6.406  0.5617 -0.0646  0.0845
  321CHOL   ROH 2867   9.421   9.856   4.770  0.0105 -0.0112  0.1617
  321CHOL    R1 2868   9.360   9.852   5.046 -0.0443 -0.0618  0.1487
  321CHOL    R2 2869   9.258   9.629   5.173  0.0431 -0.1186  0.1147
  321CHOL    R3 2870   9.470   9.667   5.339 -0.0144 -0.0248  0.1604
  321CHOL    R4 2871   9.280   9.509   5.497 -0.0110 -0.0484  0.1439
  321CHOL    R5 2872   9.372   9.698   5.555 -0.0813 -0.0111  0.1281
  321CHOL    C1 2873   9.491   9.476   5.841 -0.0965  0.0806  0.2038
  321CHOL    C2 2874   9.779   9.420   6.160 -0.0624 -0.0369 -0.0497
  322CHOL   ROH 2875   0.636  15.359   8.186  0.2163  0.0452 -0.0231
  322CHOL    R1 2876   0.423  15.386   8.001  0.1628  0.0752  0.0420
  322CHOL    R2 2877   0.446  15.530   7.766  0.1582 -0.0527 -0.0384
  322CHOL    R3 2878   0.362  15.297   7.654 -0.0149 -0.0610  0.1066
  322CHOL    R4 2879   0.210  15.505   7.515  0.2384 -0.0205 -0.1169
  322CHOL    R5 2880   0.128  15.331   7.615  0.0308  0.1323 -0.0148
  322CHOL    C1 2881  -0.006  15.272   7.263  0.1226 -0.0095 -0.0265
  322CHOL    C2 2882  -0.188  14.954   7.045 -0.4533 -0.0103 -0.2798
  323XCA    COO 2883   2.687   4.309   8.979 -0.0755  0.1396 -0.1525
  323XCA     C1 2884   2.916   4.106   8.633 -0.3453 -0.1700 -0.1068
  323XCA     C2 2885   2.883   3.951   8.134 -0.1132  0.1000  0.2629
  323XCA     C3 2886   2.823   3.771   7.744  0.0215  0.1160  0.0634
  323XCA     C4 2887   2.590   3.526   7.520 -0.2806  0.0636 -0.2238
  323XCA     C5 2888   2.452   3.130   7.440 -0.2280 -0.1245 -0.1257
  323XCA     C6 2889   2.206   3.025   7.105  0.1960 -0.2955 -0.0375
  324XCA    COO 2890   2.855   6.231   4.939  0.3013  0.3053  0.2359
  324XCA     C1 2891   2.555   6.511   5.171 -0.5012 -0.0687  0.2280
  324XCA     C2 2892   2.774   6.677   5.536  0.0719  0.0917 -0.1258
  324XCA     C3 2893   3.178   6.897   5.532 -0.0824  0.0521 -0.1442
  324XCA     C4 2894   3.283   7.348   5.745 -0.3326 -0.0368  0.1062
  324XCA     C5 2895   3.372   7.755   5.720  0.1487  0.0576  0.0881
  324XCA     C6 2896   3.174   8.168   5.792 -0.2859  0.3792  0.2049
  325CHOL   ROH 2897  12.454   3.871   4.639 -0.2148  0.1789  0.0696
  325CHOL    R1 2898  12.419   3.969   4.902 -0.0356  0.0736  0.1351
  325CHOL    R2 2899  12.194   3.912   5.052  0.0132  0.1093  0.2226
  325CHOL    R3 2900  12.377   3.826   5.234  0.0658 -0.0620  0.0904
  325CHOL    R4 2901  12.117   3.749   5.347  0.0505  0.3965  0.3955
  325CHOL    R5 2902  12.273   3.865   5.446  0.3312  0.2228  0.1753
  325CHOL    C1 2903  12.244   3.572   5.689  0.1217  0.4029  0.3720
  325CHOL    C2 2904  12.243   3.404   5.996 -0.0060 -0.0485  0.0174
  326PNCE   AM1 2905   1.488   6.600   8.296  0.4958 -0.0959  0.3358
  326PNCE   AM2 2906   1.630   6.263   8.292  0.1836  0.1407 -0.0834
  326PNCE   T1A 2907   1.602   6.554   7.842  0.1965 -0.3575  0.2418
  326PNCE   C2A 2908   1.835   6.582   7.449 -0.1982  0.3300  0.1887
  326PNCE   C3A 2909   1.818   6.536   7.065 -0.0142  0.0424  0.2818
  326PNCE   C1B 2910   1.675   5.991   7.871 -0.4076  0.0439  0.1710
  326PNCE   C2B 2911   2.054   5.665   7.898  0.0928  0.1122 -0.0123
  326PNCE   C3B 2912   1.932   5.306   8.074  0.0746 -0.1081  0.1811
  326PNCE   D4B 2913   1.906   4.804   8.007  0.0587 -0.1125 -0.0576
  326PNCE   C5B 2914   2.114   4.586   7.535  0.2863  0.2370 -0.2875
  326PNCE   C6B 2915   2.599   4.529   7.322  0.1703  0.1422 -0.0983
  327PNCE   AM1 2916   3.409   7.355   8.226 -0.2492  0.2037  0.3617
  327PNCE   AM2 2917   3.215   7.676   8.271  0.1306  0.0431 -0.3914
  327PNCE   T1A 2918   3.626   7.592   7.825 -0.1075 -0.1073  0.0096
  327PNCE   C2A 2919   3.966   7.637   7.590  0.3996 -0.0708 -0.0529
  327PNCE   C3A 2920   4.391   7.701   7.412 -0.1682  0.3005  0.0929
  327PNCE   C1B 2921   3.044   7.613   7.890  0.1228 -0.0551  0.0207
  327PNCE   C2B 2922   3.001   7.779   7.480  0.0072 -0.3664 -0.2465
  327PNCE   C3B 2923   2.765   7.822   7.034  0.3446 -0.0766  0.3084
  327PNCE   D4B 2924   2.629   7.316   6.769  0.2137 -0.2074 -0.1799
  327PNCE   C5B 2925   2.195   7.253   6.600 -0.1573 -0.1903  0.1281
  327PNCE   C6B 2926   1.798   7.101   6.603 -0.1847 -0.1729  0.1242
  328CHOL   ROH 2927  10.152  10.536   9.102 -0.1395  0.0842  0.0562
  328CHOL    R1 2928  10.170  10.613   8.830 -0.3110 -0.1781 -0.0334
  328CHOL    R2 2929  10.379  10.765   8.732 -0.6319  0.1779 -0.2000
  328CHOL    R3 2930  10.402  10.559   8.556 -0.1871  0.0149  0.0329
  328CHOL    R4 2931  10.459  10.800   8.398 -0.4230 -0.0716 -0.1791
  328CHOL    R5 2932  10.312  10.646   8.351 -0.1586 -0.3417 -0.1352
  328CHOL    C1 2933  10.527  10.627   8.037  0.1161 -0.3700  0.0517
  328CHOL    C2 2934  10.735  10.728   7.658 -0.0665 -0.1670  0.0968
  329CHOL   ROH 2935  12.653  12.239   5.497  0.0222  0.0577 -0.1912
  329CHOL    R1 2936  12.910  12.122   5.504  0.1311  0.2868 -0.2317
  329CHOL    R2 2937  13.138  12.265   5.571 -0.0578  0.3666  0.3095
  329CHOL    R3 2938  13.169  12.066   5.754 -0.0508 -0.0368 -0.1108
  329CHOL    R4 2939  13.437  12.181   5.723 -0.1264  0.2934  0.4039
  329CHOL    R5 2940  13.383  11.971   5.703  0.0858  0.2786 -0.1337
  329CHOL    C1 2941  13.640  11.947   5.983 -0.1597 -0.1280  0.0643
  329CHOL    C2 2942  13.989  11.636   6.025 -0.1311 -0.1321  0.2392
  330PNCE   AM1 2943   5.697  11.156   9.095 -0.1016 -0.0174  0.0951
  330PNCE   AM2 2944   5.920  10.846   9.019 -0.1365 -0.2024 -0.0422
  330PNCE   T1A 2945   5.399  11.247   8.785  0.1461  0.1836  0.0496
  330PNCE   C2A 2946   5.311  11.339   8.307  0.1350 -0.0510  0.0199
  330PNCE   C3A 2947   5.412  11.289   7.902  0.0911  0.1504 -0.3969
  330PNCE   C1B 2948   5.844  11.177   8.577 -0.1433 -0.3326  0.0962
  330PNCE   C2B 2949   5.870  11.193   8.102  0.2515  0.3043  0.1900
  330PNCE   C3B 2950   5.829  11.217   7.635  0.0221  0.2282  0.2086
  330PNCE   D4B 2951   5.979  11.450   7.292  0.2950 -0.1358  0.3259
  330PNCE   C5B 2952   6.050  11.295   6.942 -0.0627 -0.1652 -0.0754
  330PNCE   C6B 2953   6.040  11.386   6.445  0.1303 -0.4123  0.1615
  331PNCE   AM1 2954  13.807   6.478   7.296  0.5549 -0.4610 -0.0192
  331PNCE   AM2 2955  14.068   6.282   7.127 -0.2002  0.1469 -0.2719
  331PNCE   T1A 2956  13.757   6.597   6.845 -0.0748 -0.2610 -0.2789
  331PNCE   C2A 2957  13.917   6.701   6.454 -0.1361 -0.1476  0.0191
  331PNCE   C3A 2958  14.192   7.089   6.426 -0.2368 -0.1184  0.0072
  331PNCE   C1B 2959  14.036   6.120   6.680  0.0279 -0.0535  0.0098
  331PNCE   C2B 2960  14.147   5.994   6.331 -0.0810 -0.0853 -0.0594
  331PNCE   C3B 2961  14.198   5.693   6.157 -0.1994  0.1947  0.0967
  331PNCE   D4B 2962  13.998   5.362   5.924  0.0455 -0.1498  0.2010
  331PNCE   C5B 2963  14.099   5.223   5.602 -0.2642  0.1860 -0.1248
  331PNCE   C6B 2964  13.862   5.190   5.228 -0.0705  0.1732  0.1280
  332PNCE   AM1 2965   2.041   6.975   8.555  0.1575  0.0295 -0.2124
  332PNCE   AM2 2966   1.878   6.640   8.590 -0.0728 -0.4023 -0.2104
  332PNCE   T1A 2967   2.147   7.168   8.182 -0.2335 -0.0299  0.1086
  332PNCE   C2A 2968   2.267   7.285   7.759  0.0993 -0.1572 -0.0693
  332PNCE   C3A 2969   2.500   7.575   7.392 -0.0023 -0.0077  0.6052
  332PNCE   C1B 2970   2.089   6.588   8.094  0.0166 -0.2031 -0.2489
  332PNCE   C2B 2971   2.231   6.768   7.708  0.1128 -0.0849 -0.1124
  332PNCE   C3B 2972   2.326   6.546   7.388 -0.0610 -0.0191 -0.2343
  332PNCE   D4B 2973   2.219   6.277   7.160 -0.1047 -0.2754  0.1674
  332PNCE   C5B 2974   2.106   6.358   6.626  0.1726 -0.0273 -0.2532
  332PNCE   C6B 2975   1.936   6.689   6.324 -0.0589  0.0750 -0.0952
  333PNCE   AM1 2976   1.033   9.920   8.437 -0.1889 -0.1317 -0.0662
  333PNCE   AM2 2977   0.912  10.161   8.742  0.1335 -0.1857  0.0273
  333PNCE   T1A 2978   0.849   9.938   8.017  0.0735 -0.3677 -0.4643
  333PNCE   C2A 2979   0.760   9.716   7.623 -0.0039 -0.1293  0.0668
  333PNCE   C3A 2980   0.700   9.389   7.506  0.2121  0.0040  0.1201
  333PNCE   C1B 2981   0.569  10.146   8.423  0.1486 -0.2625  0.1634
  333PNCE   C2B 2982   0.127  10.363   8.330 -0.0943 -0.2482 -0.3776
  333PNCE   C3B 2983  -0.214  10.553   8.098 -0.0415  0.1810  0.4164
  333PNCE   D4B 2984  -0.395  10.833   7.747 -0.3069 -0.2595 -0.4331
  333PNCE   C5B 2985  -0.640  10.832   7.376 -0.1373  0.2954 -0.2101
  333PNCE   C6B 2986  -0.830  10.977   7.017 -0.1862 -0.0790 -0.3200
  334PNCE   AM1 2987  14.487   0.244   9.074 -0.0291 -0.2887  0.1020
  334PNCE   AM2 2988  14.636   0.642   9.148  0.3523 -0.1856  0.2123
  334PNCE   T1A 2989  14.296   0.423   8.595  0.0705 -0.0901 -0.0673
  334PNCE   C2A 2990  14.484   0.311   8.100 -0.0266  0.1126 -0.2196
  334PNCE   C3A 2991  14.542   0.382   7.740  0.0644 -0.1349 -0.0596
  334PNCE   C1B 2992  14.579   0.882   8.722  0.2115 -0.1622  0.1751
  334PNCE   C2B 2993  14.720   0.697   8.279 -0.0598 -0.1162  0.1349
  334PNCE   C3B 2994  14.826   0.842   7.893 -0.1904  0.0835 -0.2901
  334PNCE   D4B 2995  14.798   0.754   7.407 -0.1190  0.3326 -0.0560
  334PNCE   C5B 2996  14.440   0.583   7.263 -0.1934 -0.0798 -0.1805
  334PNCE   C6B 2997  14.121   0.491   6.944 -0.1441 -0.1012  0.2043
  335PNCE   AM1 2998   0.644   9.056   8.270 -0.0454  0.0665 -0.1628
  335PNCE   AM2 2999   0.700   8.718   8.196  0.1802  0.0311 -0.0311
  335PNCE   T1A 3000   0.889   9.226   8.005 -0.0176  0.1153  0.1709
  335PNCE   C2A 3001   1.220   9.223   7.778 -0.0136 -0.0057 -0.3950
  335PNCE   C3A 3002   1.541   8.967   7.745 -0.0980  0.1068 -0.0467
  335PNCE   C1B 3003   1.069   8.392   8.244 -0.1069 -0.0161 -0.4047
  335PNCE   C2B 3004   1.252   8.100   8.002 -0.1240 -0.2333  0.0987
  335PNCE   C3B 3005   1.341   7.878   7.590 -0.2041  0.2194  0.2283
  335PNCE   D4B 3006   1.248   7.637   7.198  0.1011 -0.4471 -0.1199
  335PNCE   C5B 3007   1.035   7.448   7.221  0.3040 -0.3258  0.0042
  335PNCE   C6B 3008   0.943   7.137   7.344  0.0211  0.1149 -0.1665
  336CHOL   ROH 3009  15.259   2.362   7.745  0.0414 -0.1070  0.0234
  336CHOL    R1 3010  14.980   2.318   7.742 -0.0158  0.2196  0.1293
  336CHOL    R2 3011  14.801   2.505   7.645  0.1979  0.2788 -0.1691
  336CHOL    R3 3012  14.718   2.298   7.489 -0.0611  0.1054  0.1850
  336CHOL    R4 3013  14.494   2.487   7.488  0.2152  0.4455 -0.2236
  336CHOL    R5 3014  14.485   2.275   7.540 -0.1150  0.5436  0.1657
  336CHOL    C1 3015  14.237   2.282   7.250 -0.0178  0.3799  0.0771
  336CHOL    C2 3016  13.899   2.304   7.134  0.3883  0.2950  0.2043
  337XCA    COO 3017   7.960   3.836   8.141 -0.0528 -0.2392 -0.0579
  337XCA     C1 3018   7.875   3.703   7.692 -0.0692  0.1237  0.1645
  337XCA     C2 3019   7.816   3.863   7.270 -0.0302  0.0206  0.0751
  337XCA     C3 3020   7.752   3.921   6.768  0.2032  0.1300 -0.0929
  337XCA     C4 3021   7.642   3.929   6.296  0.0827 -0.2091 -0.0474
  337XCA     C5 3022   7.308   4.151   6.106 -0.1973 -0.0763 -0.3916
  337XCA     C6 3023   7.182   4.526   5.889 -0.2308 -0.0609  0.0404
  338PNCE   AM1 3024  13.256   6.315   7.389 -0.1111 -0.2066 -0.0143
  338PNCE   AM2 3025  13.386   6.035   7.444 -0.3631  0.2014 -0.0227
  338PNCE   T1A 3026  13.198   6.565   6.966  0.1770 -0.1720 -0.0126
  338PNCE   C2A 3027  13.234   6.672   6.547 -0.1152  0.2543 -0.1190
  338PNCE   C3A 3028  13.209   6.679   6.158 -0.0291 -0.0976 -0.0287
  338PNCE   C1B 3029  13.496   6.127   7.011 -0.5560  0.0302 -0.1638
  338PNCE   C2B 3030  13.557   6.286   6.552 -0.0382  0.3980 -0.0351
  338PNCE   C3B 3031  13.688   6.458   6.113  0.1972  0.0619 -0.0225
  338PNCE   D4B 3032  13.535   6.579   5.785 -0.1232 -0.2705  0.1306
  338PNCE   C5B 3033  13.721   6.245   5.516 -0.0612  0.0508 -0.0530
  338PNCE   C6B 3034  14.139   6.050   5.488 -0.0589 -0.1812 -0.1058
  339CHOL   ROH 3035   4.266   0.504   8.806  0.1000 -0.1058  0.0649
  339CHOL    R1 3036   4.197   0.424   8.543  0.0433 -0.0786  0.0704
  339CHOL    R2 3037   4.230   0.589   8.324 -0.1274 -0.0039  0.0930
  339CHOL    R3 3038   4.371   0.377   8.227 -0.0482  0.0937 -0.0050
  339CHOL    R4 3039   4.259   0.506   7.989  0.0481  0.2508  0.0429
  339CHOL    R5 3040   4.239   0.297   8.044  0.0566  0.2090 -0.1288
  339CHOL    C1 3041   4.407   0.260   7.704  0.2245  0.4907 -0.0785
  339CHOL    C2 3042   4.443   0.244   7.346 -0.0390 -0.2232  0.3296
  340PNCE   AM1 3043   5.936  13.282   8.609 -0.1872 -0.2460  0.0646
  340PNCE   AM2 3044   6.299  13.281   8.696 -0.4374 -0.0594  0.0542
  340PNCE   T1A 3045   5.967  13.306   8.221  0.2976 -0.0862  0.1298
  340PNCE   C2A 3046   6.001  13.237   7.829 -0.4032  0.4855  0.0180
  340PNCE   C3A 3047   5.588  13.417   7.570 -0.1686  0.0128 -0.1899
  340PNCE   C1B 3048   6.466  13.512   8.452 -0.0717  0.1609  0.1640
  340PNCE   C2B 3049   6.533  13.523   8.002 -0.0334 -0.0153  0.0297
  340PNCE   C3B 3050   6.324  13.644   7.713  0.1220 -0.1256  0.0845
  340PNCE   D4B 3051   5.944  13.768   7.560  0.3010 -0.2336 -0.2762
  340PNCE   C5B 3052   5.586  13.790   7.871  0.1224 -0.4262  0.0180
  340PNCE   C6B 3053   5.505  14.142   8.080  0.0549  0.1451 -0.2008
  341PNCE   AM1 3054   7.049   5.590   8.323  0.3346 -0.1703  0.0806
  341PNCE   AM2 3055   7.387   5.561   8.276  0.0455  0.2126 -0.0573
  341PNCE   T1A 3056   6.963   5.771   7.936 -0.1451 -0.1025  0.2148
  341PNCE   C2A 3057   7.073   5.865   7.439 -0.0525 -0.1264  0.3433
  341PNCE   C3A 3058   7.114   5.721   7.024 -0.0223  0.0628 -0.1039
  341PNCE   C1B 3059   7.244   5.315   7.935  0.3157  0.1378 -0.2674
  341PNCE   C2B 3060   7.321   5.187   7.517 -0.1145  0.0958 -0.2800
  341PNCE   C3B 3061   7.436   5.103   7.065  0.2581  0.1270  0.0851
  341PNCE   D4B 3062   7.450   5.375   6.684  0.3261  0.1397 -0.1768
  341PNCE   C5B 3063   7.739   5.622   6.717  0.2684 -0.4038  0.1317
  341PNCE   C6B 3064   7.676   5.820   6.289 -0.2849 -0.1797  0.4770
  342PNCE   AM1 3065   6.393   8.869   8.313 -0.2047  0.2473  0.0277
  342PNCE   AM2 3066   6.652   9.132   8.424  0.0086  0.3135  0.1659
  342PNCE   T1A 3067   6.231   8.928   7.880  0.1443  0.1474 -0.0263
  342PNCE   C2A 3068   6.077   8.701   7.509 -0.0867  0.0539 -0.2233
  342PNCE   C3A 3069   5.839   8.790   7.133  0.2833  0.0561 -0.1508
  342PNCE   C1B 3070   6.742   9.108   7.975  0.1510 -0.1535  0.0787
  342PNCE   C2B 3071   7.046   9.241   7.646  0.0068 -0.0658  0.0337
  342PNCE   C3B 3072   7.386   9.085   7.527 -0.0598 -0.2558 -0.0451
  342PNCE   D4B 3073   7.600   9.131   7.083  0.1320 -0.1698 -0.0437
  342PNCE   C5B 3074   7.884   8.955   6.971 -0.3779 -0.0805  0.1906
  342PNCE   C6B 3075   8.157   8.673   6.782  0.2142  0.0279  0.5445
  343CHOL   ROH 3076  11.567   5.281   6.970 -0.0727 -0.0748 -0.0190
  343CHOL    R1 3077  11.520   5.464   6.759 -0.0581 -0.0913 -0.0349
  343CHOL    R2 3078  11.440   5.383   6.507 -0.0448 -0.1084 -0.0266
  343CHOL    R3 3079  11.237   5.558   6.549 -0.0446 -0.0981 -0.0595
  343CHOL    R4 3080  11.226   5.498   6.262 -0.1247 -0.2651 -0.0327
  343CHOL    R5 3081  11.237   5.696   6.353 -0.1091 -0.2071 -0.1429
  343CHOL    C1 3082  10.910   5.730   6.159 -0.1710 -0.3465 -0.0672
  343CHOL    C2 3083  10.894   5.465   5.852  0.2105 -0.0568  0.6124
  344CHOL   ROH 3084   8.107   9.710   8.557 -0.0079 -0.0752  0.1930
  344CHOL    R1 3085   8.360   9.656   8.442 -0.0701  0.1165 -0.0421
  344CHOL    R2 3086   8.493   9.838   8.282 -0.1248  0.4234  0.2561
  344CHOL    R3 3087   8.695   9.797   8.460 -0.0404  0.0341  0.0829
  344CHOL    R4 3088   8.825   9.918   8.227 -0.1423  0.4909  0.2449
  344CHOL    R5 3089   8.881   9.731   8.325 -0.1165  0.2747 -0.1519
  344CHOL    C1 3090   9.207   9.926   8.361 -0.0734  0.1647  0.0758
  344CHOL    C2 3091   9.545  10.051   8.437 -0.0629 -0.2626  0.2636
  345PNCE   AM1 3092  13.292   6.806   7.448 -0.1194  0.0231  0.2113
  345PNCE   AM2 3093  12.979   6.945   7.207 -0.0894 -0.2310 -0.3446
  345PNCE   T1A 3094  13.730   7.023   7.324 -0.0548  0.0751 -0.2395
  345PNCE   C2A 3095  14.040   7.231   7.515 -0.1456 -0.0030 -0.0194
  345PNCE   C3A 3096  14.315   7.635   7.439  0.1765 -0.1207 -0.1986
  345PNCE   C1B 3097  13.293   7.105   6.888  0.2224 -0.1485 -0.1397
  345PNCE   C2B 3098  13.611   7.472   7.015 -0.4457  0.0651 -0.0113
  345PNCE   C3B 3099  14.062   7.493   7.052 -0.3072  0.3316  0.0532
  345PNCE   D4B 3100  14.498   7.258   6.959 -0.0133  0.3139 -0.1603
  345PNCE   C5B 3101  14.809   7.378   6.618  0.0030 -0.0131  0.0886
  345PNCE   C6B 3102  14.797   7.666   6.221 -0.2518 -0.0087 -0.1948
  346PNCE   AM1 3103  12.721   4.656   7.734 -0.3256  0.2558  0.1443
  346PNCE   AM2 3104  12.784   4.491   8.125  0.2379  0.0204 -0.2822
  346PNCE   T1A 3105  12.772   4.397   7.354  0.1697 -0.0160 -0.3402
  346PNCE   C2A 3106  12.529   4.408   6.930 -0.3629 -0.1405  0.3548
  346PNCE   C3A 3107  12.743   4.263   6.485 -0.0894 -0.3813  0.2265
  346PNCE   C1B 3108  12.799   4.138   7.939  0.1298  0.0093  0.0305
  346PNCE   C2B 3109  12.787   3.927   7.532 -0.0932  0.0520 -0.1072
  346PNCE   C3B 3110  12.839   3.973   7.048 -0.0399  0.1687 -0.1274
  346PNCE   D4B 3111  13.057   4.366   6.853  0.2861  0.2689 -0.2560
  346PNCE   C5B 3112  12.854   4.708   6.682 -0.0395  0.0491 -0.1817
  346PNCE   C6B 3113  12.828   4.722   6.258  0.1821  0.1246  0.1332
  347PNCE   AM1 3114   9.349  10.349   8.940  0.1247  0.1507 -0.1186
  347PNCE   AM2 3115   9.121  10.500   8.969  0.3074 -0.2445  0.4802
  347PNCE   T1A 3116   9.193  10.373   8.523 -0.0223 -0.2476  0.1155
  347PNCE   C2A 3117   8.869  10.402   8.209 -0.0714 -0.1386  0.2904
  347PNCE   C3A 3118   8.626  10.640   7.983  0.1478  0.1878 -0.1264
  347PNCE   C1B 3119   9.341  10.878   8.692  0.0138  0.3759  0.3572
  347PNCE   C2B 3120   9.616  11.052   8.545  0.1937  0.0945 -0.0478
  347PNCE   C3B 3121   9.794  11.028   8.159  0.0117  0.1536  0.0805
  347PNCE   D4B 3122  10.108  11.014   7.789 -0.0328  0.3464  0.1886
  347PNCE   C5B 3123  10.277  11.367   7.711  0.0169 -0.1840  0.3181
  347PNCE   C6B 3124  10.527  11.711   7.659  0.3334  0.1055 -0.0369
  348XCA    COO 3125   0.389  10.899   5.230 -0.2033  0.0532 -0.0820
  348XCA     C1 3126   0.156  10.888   5.529  0.3752  0.2358  0.0418
  348XCA     C2 3127  -0.036  11.235   5.732 -0.2135 -0.0926 -0.2139
  348XCA     C3 3128   0.063  11.439   6.043 -0.1201 -0.2068 -0.2377
  348XCA     C4 3129   0.020  11.675   6.433  0.1731 -0.1820  0.0927
  348XCA     C5 3130   0.135  11.994   6.722  0.0516  0.3457 -0.0939
  348XCA     C6 3131   0.438  12.469   6.740  0.0556  0.2475  0.1378
  349XCA    COO 3132  15.181   4.510   8.124  0.1277  0.0273 -0.1846
  349XCA     C1 3133  15.214   4.381   7.700  0.1003 -0.1691  0.1381
  349XCA     C2 3134  15.412   4.317   7.337 -0.1816  0.1535  0.1914
  349XCA     C3 3135  15.671   4.431   7.030 -0.0202  0.0945 -0.0639
  349XCA     C4 3136  16.098   4.466   6.809  0.0312  0.2159  0.1807
  349XCA     C5 3137  16.462   4.247   6.878 -0.0917  0.0349 -0.1201
  349XCA     C6 3138  16.805   3.976   7.003  0.0177 -0.0113  0.2783
  350XCA    COO 3139   7.309  11.019   8.373  0.0013 -0.0358 -0.2384
  350XCA     C1 3140   7.537  10.771   8.208  0.1945  0.2940  0.1479
  350XCA     C2 3141   7.680  10.836   7.713 -0.0299  0.1985  0.2135
  350XCA     C3 3142   8.071  10.970   7.508  0.1736 -0.1594 -0.0019
  350XCA     C4 3143   8.368  11.326   7.628 -0.3531  0.3233  0.0744
  350XCA     C5 3144   8.523  11.685   7.541 -0.1355  0.1060 -0.1126
  350XCA     C6 3145   8.901  11.921   7.527  0.1666 -0.2188 -0.1259
  351CHOL   ROH 3146   1.584   9.864   4.721 -0.0660 -0.1902  0.0412
  351CHOL    R1 3147   1.590   9.837   5.003 -0.0525 -0.0653  0.0535
  351CHOL    R2 3148   1.738   9.641   5.131 -0.1862 -0.1213  0.1251
  351CHOL    R3 3149   1.843   9.853   5.265 -0.0070 -0.1380  0.0138
  351CHOL    R4 3150   1.871   9.627   5.449 -0.1562 -0.0728  0.1148
  351CHOL    R5 3151   1.776   9.819   5.492 -0.0044  0.0196  0.0384
  351CHOL    C1 3152   2.047   9.818   5.760  0.0296 -0.0602  0.0043
  351CHOL    C2 3153   2.077   9.872   6.172 -0.0777 -0.2971 -0.0011
  352PNCE   AM1 3154   7.605  15.095   8.604  0.0659 -0.5957 -0.0511
  352PNCE   AM2 3155   7.635  14.979   8.344 -0.0882  0.1571  0.1356
  352PNCE   T1A 3156   7.436  15.397   8.293 -0.4093  0.0690 -0.4195
  352PNCE   C2A 3157   7.282  15.713   8.038 -0.0272  0.0636  0.3357
  352PNCE   C3A 3158   7.180  16.194   8.089  0.2158 -0.0426  0.3723
  352PNCE   C1B 3159   7.792  14.969   7.932  0.2802 -0.1880 -0.0119
  352PNCE   C2B 3160   7.622  15.054   7.491 -0.0762 -0.2159  0.1084
  352PNCE   C3B 3161   7.679  15.100   7.039  0.2142  0.0176  0.0212
  352PNCE   D4B 3162   7.467  15.327   6.841  0.0424 -0.2686 -0.5272
  352PNCE   C5B 3163   7.288  15.229   6.464 -0.0882 -0.1222 -0.0846
  352PNCE   C6B 3164   7.390  15.040   6.027  0.1348  0.0911  0.1582
  353PNCE   AM1 3165   2.749  10.356   8.663  0.2979  0.0695  0.1590
  353PNCE   AM2 3166   2.511  10.294   8.457  0.2878  0.0995 -0.0442
  353PNCE   T1A 3167   2.922  10.260   8.252  0.1404 -0.0912 -0.3057
  353PNCE   C2A 3168   2.944  10.229   7.849 -0.0864 -0.0411  0.0580
  353PNCE   C3A 3169   2.767  10.089   7.509 -0.1297 -0.2734 -0.2545
  353PNCE   C1B 3170   2.443  10.076   8.015  0.0122  0.3049 -0.1199
  353PNCE   C2B 3171   2.209  10.149   7.595  0.3258  0.2211 -0.0318
  353PNCE   C3B 3172   2.150  10.160   7.189 -0.0260 -0.1541 -0.2359
  353PNCE   D4B 3173   2.012   9.876   6.827 -0.0222  0.2643  0.1425
  353PNCE   C5B 3174   1.556   9.829   6.806 -0.0439  0.2100  0.0935
  353PNCE   C6B 3175   1.286   9.589   6.759 -0.0422 -0.0629 -0.2195
  354PNCE   AM1 3176   8.485   4.684   8.372 -0.1857  0.0085  0.2304
  354PNCE   AM2 3177   8.665   4.836   8.299  0.1351  0.0768  0.2826
  354PNCE   T1A 3178   8.364   4.374   8.059  0.1550  0.2574  0.1936
  354PNCE   C2A 3179   8.287   4.025   7.786  0.0523 -0.0382  0.0760
  354PNCE   C3A 3180   8.387   3.708   7.418  0.1640  0.1259 -0.1216
  354PNCE   C1B 3181   8.563   4.768   7.829 -0.1903  0.3616  0.0997
  354PNCE   C2B 3182   8.803   4.734   7.443  0.0117  0.0878 -0.1450
  354PNCE   C3B 3183   8.727   4.522   7.099  0.1162 -0.0378 -0.0109
  354PNCE   D4B 3184   8.787   4.379   6.704  0.0447  0.1031  0.0779
  354PNCE   C5B 3185   9.080   3.969   6.599 -0.2606 -0.0706 -0.0423
  354PNCE   C6B 3186   9.369   3.904   6.221  0.2579  0.1183  0.2856
  355XCA    COO 3187   1.619   2.619   4.770  0.1890  0.0525 -0.0620
  355XCA     C1 3188   1.768   2.349   5.196  0.0630  0.2748  0.0880
  355XCA     C2 3189   1.820   2.522   5.589 -0.3540  0.0500  0.0463
  355XCA     C3 3190   1.840   2.397   5.907  0.0683  0.0674  0.3017
  355XCA     C4 3191   1.794   2.427   6.333 -0.1154  0.0304  0.1140
  355XCA     C5 3192   1.428   2.465   6.570 -0.2764 -0.0259  0.2049
  355XCA     C6 3193   1.021   2.431   6.782 -0.0029 -0.1818  0.0561
  356CHOL   ROH 3194   6.260   3.681   4.872  0.1301  0.0407 -0.0023
  356CHOL    R1 3195   6.192   3.687   5.147  0.1495  0.0748 -0.0000
  356CHOL    R2 3196   6.067   3.476   5.274  0.1261  0.1114  0.0207
  356CHOL    R3 3197   6.278   3.496   5.445  0.1357  0.0883  0.0148
  356CHOL    R4 3198   6.067   3.362   5.600  0.1727 -0.0448 -0.0311
  356CHOL    R5 3199   6.177   3.542   5.658  0.1317 -0.0362  0.0463
  356CHOL    C1 3200   6.264   3.314   5.951  0.2088 -0.1575 -0.0669
  356CHOL    C2 3201   6.402   3.199   6.291  0.1199  0.0609  0.2653
  357PNCE   AM1 3202  15.765   5.593   8.134  0.0143 -0.0047  0.1125
  357PNCE   AM2 3203  16.000   5.466   8.128  0.0055 -0.0591 -0.1638
  357PNCE   T1A 3204  15.774   6.030   7.979 -0.2068  0.0422  0.0016
  357PNCE   C2A 3205  15.707   6.494   7.983 -0.0057  0.3275 -0.0273
  357PNCE   C3A 3206  15.727   6.829   7.622 -0.1053 -0.3166  0.0250
  357PNCE   C1B 3207  16.134   5.579   7.786  0.2027  0.1309 -0.0295
  357PNCE   C2B 3208  16.159   5.945   7.484  0.0234  0.0880 -0.1081
  357PNCE   C3B 3209  16.225   5.965   7.007 -0.3974 -0.1719 -0.1341
  357PNCE   D4B 3210  16.334   5.982   6.525  0.0633  0.0881  0.0860
  357PNCE   C5B 3211  16.713   5.714   6.350  0.2647 -0.0737  0.0025
  357PNCE   C6B 3212  16.985   5.398   6.334  0.0099 -0.2495 -0.0081
  358CHOL   ROH 3213   2.386  13.390   4.693  0.2536  0.0901 -0.0175
  358CHOL    R1 3214   2.406  13.325   4.968  0.0807  0.0991 -0.0021
  358CHOL    R2 3215   2.604  13.426   5.131  0.0361  0.0281  0.0972
  358CHOL    R3 3216   2.393  13.505   5.284 -0.0140  0.1242 -0.0199
  358CHOL    R4 3217   2.592  13.407   5.476 -0.1034  0.1826  0.1018
  358CHOL    R5 3218   2.384  13.343   5.461 -0.1055  0.2038  0.0485
  358CHOL    C1 3219   2.387  13.471   5.820 -0.2315  0.3627 -0.0056
  358CHOL    C2 3220   2.417  13.237   6.135  0.1135  0.0691 -0.0319
  359XCA    COO 3221   7.994  11.400   9.209 -0.0334  0.0904 -0.4005
  359XCA     C1 3222   8.203  11.073   9.127  0.1353  0.3782  0.0350
  359XCA     C2 3223   8.218  11.048   8.664 -0.1429  0.0535 -0.0109
  359XCA     C3 3224   8.527  11.123   8.266 -0.1667  0.1373 -0.0275
  359XCA     C4 3225   8.692  11.085   7.877  0.3133  0.0393 -0.2062
  359XCA     C5 3226   8.887  11.357   7.618  0.3007 -0.0607  0.0992
  359XCA     C6 3227   9.337  11.509   7.446 -0.2894 -0.1472  0.0302
  360PNCE   AM1 3228  11.369   5.899   7.158  0.2413 -0.1511 -0.0352
  360PNCE   AM2 3229  11.564   6.129   7.025  0.1422 -0.0593  0.2154
  360PNCE   T1A 3230  11.032   5.896   6.814  0.0569 -0.1105 -0.0958
  360PNCE   C2A 3231  10.763   5.766   6.559  0.0340  0.0853 -0.0961
  360PNCE   C3A 3232  10.460   5.593   6.598 -0.2589  0.0575  0.0582
  360PNCE   C1B 3233  11.555   5.906   6.601  0.4961  0.0346  0.2258
  360PNCE   C2B 3234  11.422   6.120   6.242 -0.0739  0.1292  0.2133
  360PNCE   C3B 3235  11.269   5.932   5.929  0.0361 -0.1546  0.0749
  360PNCE   D4B 3236  10.851   5.974   5.743 -0.2071 -0.0655  0.3947
  360PNCE   C5B 3237  10.480   6.191   5.479  0.2303  0.2185 -0.2680
  360PNCE   C6B 3238  10.525   6.230   5.062  0.0263  0.2422  0.1721
  361XCA    COO 3239   3.984   8.701   8.600 -0.0024 -0.1762  0.0625
  361XCA     C1 3240   3.903   8.636   8.177 -0.1891  0.2763  0.1988
  361XCA     C2 3241   3.923   8.664   7.702 -0.2865  0.0141  0.0825
  361XCA     C3 3242   3.892   8.511   7.234  0.1403  0.0584 -0.1144
  361XCA     C4 3243   3.498   8.329   7.165 -0.0720 -0.2333 -0.0806
  361XCA     C5 3244   3.136   8.265   7.425  0.1518 -0.4094 -0.1115
  361XCA     C6 3245   3.091   8.116   7.794 -0.0261  0.0080 -0.1028
  362CHOL   ROH 3246  15.572   4.592   7.887 -0.1019  0.1356  0.0444
  362CHOL    R1 3247  15.674   4.624   7.625 -0.0665  0.0373  0.0462
  362CHOL    R2 3248  15.865   4.813   7.562 -0.1351  0.0828 -0.0185
  362CHOL    R3 3249  15.999   4.598   7.463 -0.0249  0.0856  0.1199
  362CHOL    R4 3250  16.126   4.831   7.335 -0.3253  0.0646 -0.2429
  362CHOL    R5 3251  16.043   4.656   7.234 -0.2556 -0.1276  0.0155
  362CHOL    C1 3252  16.403   4.639   7.110 -0.3326  0.0566 -0.2437
  362CHOL    C2 3253  16.504   4.870   6.837  0.3439 -0.0020 -0.0725
  363CHOL   ROH 3254   3.600  13.566   4.738 -0.0490  0.0444  0.0110
  363CHOL    R1 3255   3.511  13.499   4.998 -0.0184  0.1437  0.0474
  363CHOL    R2 3256   3.619  13.288   5.142 -0.1681  0.0461  0.0161
  363CHOL    R3 3257   3.658  13.480   5.330  0.0887  0.0188 -0.0054
  363CHOL    R4 3258   3.653  13.229   5.481 -0.1502  0.0286  0.0115
  363CHOL    R5 3259   3.531  13.405   5.519  0.0500  0.1679  0.0306
  363CHOL    C1 3260   3.710  13.375   5.855  0.1014 -0.0073 -0.0114
  363CHOL    C2 3261   3.577  13.141   5.978  0.0063 -0.1607 -0.2649
  364CHOL   ROH 3262  14.787  15.111   8.799  0.1737 -0.0997 -0.0645
  364CHOL    R1 3263  14.862  15.264   8.572 -0.1823  0.0692 -0.0755
  364CHOL    R2 3264  15.072  15.192   8.407 -0.0189  0.5342 -0.0864
  364CHOL    R3 3265  14.882  15.211   8.213 -0.0842  0.0987 -0.0741
  364CHOL    R4 3266  15.136  15.209   8.068 -0.0979  0.4465 -0.1061
  364CHOL    R5 3267  14.978  15.357   8.050 -0.3559  0.1699 -0.1736
  364CHOL    C1 3268  14.996  15.237   7.688 -0.2052 -0.0134 -0.1061
  364CHOL    C2 3269  14.932  15.294   7.352  0.1170  0.1490 -0.1646
  365CHOL   ROH 3270   8.378   2.873   5.092 -0.1394  0.2295  0.1324
  365CHOL    R1 3271   8.296   2.986   5.338 -0.0518  0.2310  0.1616
  365CHOL    R2 3272   8.188   2.836   5.543 -0.1685  0.2605  0.1266
  365CHOL    R3 3273   8.387   2.950   5.688 -0.0769  0.0715  0.1512
  365CHOL    R4 3274   8.204   2.837   5.888 -0.0878  0.0534  0.1248
  365CHOL    R5 3275   8.276   3.043   5.879  0.0171  0.0197  0.2298
  365CHOL    C1 3276   8.401   2.946   6.226  0.0452 -0.2446  0.1468
  365CHOL    C2 3277   8.514   2.716   6.536  0.0203 -0.1909 -0.1713
  366PNCE   AM1 3278   6.039   2.321   9.139  0.2498 -0.0548 -0.0701
  366PNCE   AM2 3279   6.015   2.100   8.963  0.0544 -0.3110 -0.2778
  366PNCE   T1A 3280   5.892   2.633   8.890  0.1993 -0.4540 -0.0150
  366PNCE   C2A 3281   5.516   2.775   8.671 -0.0402 -0.1228 -0.1895
  366PNCE   C3A 3282   5.531   2.984   8.318 -0.1723  0.0212  0.0816
  366PNCE   C1B 3283   5.885   1.910   8.544  0.3309  0.1584  0.0387
  366PNCE   C2B 3284   6.022   1.886   8.159 -0.2485  0.0279  0.0627
  366PNCE   C3B 3285   6.052   1.713   7.684  0.3503 -0.0194 -0.2538
  366PNCE   D4B 3286   5.789   1.333   7.517 -0.0739  0.0239  0.1320
  366PNCE   C5B 3287   5.485   1.215   7.371 -0.0025 -0.0707 -0.2474
  366PNCE   C6B 3288   5.482   0.673   7.373  0.1690  0.2180 -0.2375
  367CHOL   ROH 3289  14.634   3.490   8.349  0.2581  0.3682 -0.1107
  367CHOL    R1 3290  14.780   3.545   8.113  0.2008  0.1914 -0.1883
  367CHOL    R2 3291  15.009   3.406   8.045  0.1822  0.1413 -0.1392
  367CHOL    R3 3292  14.875   3.363   7.813  0.1290 -0.0343 -0.0777
  367CHOL    R4 3293  15.157   3.315   7.747  0.1555  0.2144 -0.1755
  367CHOL    R5 3294  15.021   3.450   7.644 -0.0147  0.0676 -0.1537
  367CHOL    C1 3295  15.118   3.220   7.355  0.0899  0.0921 -0.1389
  367CHOL    C2 3296  15.134   3.053   6.952 -0.0409 -0.1438 -0.3268
  368CHOL   ROH 3297   3.377   2.596   9.217  0.1800 -0.0525 -0.1637
  368CHOL    R1 3298   3.349   2.596   8.936  0.1557 -0.1256 -0.1613
  368CHOL    R2 3299   3.348   2.363   8.787 -0.0882 -0.1812 -0.0785
  368CHOL    R3 3300   3.112   2.460   8.694 -0.0007  0.0209 -0.0928
  368CHOL    R4 3301   3.201   2.273   8.487 -0.1811 -0.1137 -0.0533
  368CHOL    R5 3302   3.145   2.481   8.458  0.0137 -0.0648 -0.0995
  368CHOL    C1 3303   2.894   2.312   8.226 -0.1532  0.1153 -0.0522
  368CHOL    C2 3304   2.893   2.320   7.834 -0.1933  0.0298 -0.0584
  369PNCE   AM1 3305   1.494   3.495   9.054 -0.1226  0.0453  0.0457
  369PNCE   AM2 3306   1.303   3.567   8.867  0.3576 -0.0193 -0.1207
  369PNCE   T1A 3307   1.674   3.210   8.726  0.1076  0.0120 -0.1695
  369PNCE   C2A 3308   2.002   2.852   8.540  0.0350 -0.0128 -0.2105
  369PNCE   C3A 3309   2.152   2.740   8.170 -0.0744 -0.1737  0.1231
  369PNCE   C1B 3310   1.614   3.681   8.546  0.0964  0.0448 -0.0922
  369PNCE   C2B 3311   1.448   3.726   8.098  0.2149 -0.2480  0.0354
  369PNCE   C3B 3312   1.545   3.845   7.666 -0.2598 -0.0178  0.0255
  369PNCE   D4B 3313   1.831   3.808   7.293  0.0732 -0.0000  0.0084
  369PNCE   C5B 3314   2.161   3.652   7.148 -0.0184 -0.2415  0.3195
  369PNCE   C6B 3315   2.549   3.878   7.160 -0.2201  0.0262 -0.2481
  370PNCE   AM1 3316   8.416  15.586   8.824  0.0685 -0.1231 -0.0282
  370PNCE   AM2 3317   8.168  15.384   8.804  0.0673  0.0283  0.1592
  370PNCE   T1A 3318   8.448  15.626   8.366  0.0196  0.1525 -0.2069
  370PNCE   C2A 3319   8.270  15.680   8.032  0.0878  0.1740  0.1547
  370PNCE   C3A 3320   8.077  15.921   7.636  0.0495  0.2090  0.0502
  370PNCE   C1B 3321   8.055  15.305   8.347 -0.1566 -0.1182  0.1352
  370PNCE   C2B 3322   8.198  15.236   7.905 -0.1119  0.4210  0.0492
  370PNCE   C3B 3323   8.117  15.362   7.473  0.0278 -0.1667  0.2685
  370PNCE   D4B 3324   7.900  15.536   7.232 -0.0098  0.4447  0.1998
  370PNCE   C5B 3325   7.898  15.982   7.048  0.2808 -0.0161 -0.1259
  370PNCE   C6B 3326   7.670  16.339   7.159 -0.0969 -0.2689  0.0023
  371CHOL   ROH 3327   4.471  10.288   8.047 -0.0941  0.0262 -0.0005
  371CHOL    R1 3328   4.543  10.233   7.778  0.0212  0.0261  0.0287
  371CHOL    R2 3329   4.416  10.351   7.563 -0.0478 -0.1486 -0.0360
  371CHOL    R3 3330   4.669  10.422   7.494 -0.0980  0.0804  0.0132
  371CHOL    R4 3331   4.552  10.316   7.247  0.1362 -0.2703  0.0561
  371CHOL    R5 3332   4.739  10.253   7.340  0.1676  0.0260  0.1930
  371CHOL    C1 3333   4.869  10.362   6.999  0.1963 -0.1261  0.1560
  371CHOL    C2 3334   4.560  10.505   6.694 -0.1063 -0.2533 -0.0002
  372CHOL   ROH 3335  11.996   7.199   4.740 -0.0027 -0.0262  0.1091
  372CHOL    R1 3336  11.890   7.218   5.002  0.0031  0.0206  0.1080
  372CHOL    R2 3337  12.034   7.145   5.226 -0.0152 -0.0007  0.1130
  372CHOL    R3 3338  11.973   7.397   5.308  0.0510  0.0216  0.0945
  372CHOL    R4 3339  12.021   7.247   5.555  0.0241  0.0313  0.1049
  372CHOL    R5 3340  11.843   7.365   5.506  0.0515  0.0710  0.1027
  372CHOL    C1 3341  11.955   7.543   5.825  0.1091  0.0708  0.0827
  372CHOL    C2 3342  11.873   7.907   5.889 -0.2830  0.0018 -0.2982
  373CHOL   ROH 3343   0.927  11.833   7.620 -0.1864 -0.0919 -0.0157
  373CHOL    R1 3344   0.760  11.996   7.460 -0.1358  0.0003  0.0238
  373CHOL    R2 3345   0.648  12.230   7.554 -0.0696  0.0126  0.0840
  373CHOL    R3 3346   0.767  12.338   7.335 -0.0306  0.0317  0.1157
  373CHOL    R4 3347   0.546  12.521   7.397 -0.1552 -0.0752 -0.0233
  373CHOL    R5 3348   0.585  12.425   7.205 -0.0176 -0.0932  0.0158
  373CHOL    C1 3349   0.598  12.792   7.100 -0.1684 -0.1086 -0.0561
  373CHOL    C2 3350   0.739  13.155   7.001  0.0128  0.0982  0.1818
  374XCA    COO 3351  12.809  14.462   8.270  0.2109  0.0520 -0.0185
  374XCA     C1 3352  12.746  14.756   8.066 -0.0864 -0.0725 -0.1724
  374XCA     C2 3353  12.907  14.978   7.687  0.2612  0.3493 -0.0691
  374XCA     C3 3354  13.082  15.199   7.318 -0.0827 -0.1836 -0.0857
  374XCA     C4 3355  13.450  15.086   6.984 -0.1645  0.2216  0.1074
  374XCA     C5 3356  13.742  15.363   6.836  0.1645  0.0081  0.1691
  374XCA     C6 3357  14.168  15.440   6.757 -0.2025  0.0888  0.2206
  375CHOL   ROH 3358  14.430  10.686   4.352  0.0841 -0.0122  0.1346
  375CHOL    R1 3359  14.507  10.528   4.574  0.0713 -0.0499  0.1142
  375CHOL    R2 3360  14.325  10.387   4.727  0.0284  0.1168  0.2356
  375CHOL    R3 3361  14.486  10.177   4.667 -0.1773 -0.0211  0.1616
  375CHOL    R4 3362  14.372  10.111   4.929  0.0035  0.1327  0.2614
  375CHOL    R5 3363  14.583  10.115   4.877 -0.0450 -0.0401  0.0863
  375CHOL    C1 3364  14.551   9.753   4.991 -0.2040  0.0124  0.2071
  375CHOL    C2 3365  14.772   9.493   4.940  0.2503 -0.1231 -0.0057
  376PNCE   AM1 3366   8.095   3.256   8.197 -0.1952  0.1110  0.1119
  376PNCE   AM2 3367   8.406   3.406   8.339  0.0579 -0.1381 -0.0979
  376PNCE   T1A 3368   8.266   3.312   7.744  0.2313  0.1501 -0.0336
  376PNCE   C2A 3369   8.517   3.120   7.464 -0.4683  0.1444  0.1807
  376PNCE   C3A 3370   8.642   3.311   7.000 -0.0403  0.0827  0.0210
  376PNCE   C1B 3371   8.590   3.161   7.999  0.0718 -0.1169 -0.1188
  376PNCE   C2B 3372   8.496   2.723   7.863  0.0422 -0.0424 -0.0869
  376PNCE   C3B 3373   8.239   2.443   8.009  0.1403 -0.0193 -0.1343
  376PNCE   D4B 3374   8.026   2.034   7.963  0.1157  0.2051 -0.0738
  376PNCE   C5B 3375   7.633   1.891   8.104 -0.0378  0.0228 -0.2423
  376PNCE   C6B 3376   7.143   1.776   7.920  0.0160 -0.0817  0.3467
  377XCA    COO 3377  15.572  15.763   4.512  0.1916 -0.1872 -0.2246
  377XCA     C1 3378  15.519  15.654   4.922 -0.0129 -0.1764 -0.0013
  377XCA     C2 3379  15.316  15.336   5.212  0.2324 -0.2674 -0.0595
  377XCA     C3 3380  15.251  15.310   5.765  0.2098 -0.1887  0.1681
  377XCA     C4 3381  14.941  15.451   6.009 -0.0819  0.0212  0.2649
  377XCA     C5 3382  14.604  15.359   5.787 -0.0906 -0.0572 -0.0650
  377XCA     C6 3383  14.460  15.046   5.531  0.0198  0.2667 -0.0148
  378PNCE   AM1 3384  13.326  13.618   8.932  0.3332 -0.2902  0.2479
  378PNCE   AM2 3385  13.652  13.556   8.897  0.0068  0.1562  0.1470
  378PNCE   T1A 3386  13.335  13.694   8.479  0.3784 -0.0924  0.1435
  378PNCE   C2A 3387  13.465  13.638   7.984 -0.0672 -0.1164 -0.0240
  378PNCE   C3A 3388  13.312  13.789   7.646  0.2045  0.0136 -0.1060
  378PNCE   C1B 3389  13.818  13.500   8.446  0.0643  0.0812  0.1340
  378PNCE   C2B 3390  13.987  13.619   7.990  0.0060  0.0671  0.0594
  378PNCE   C3B 3391  13.793  13.725   7.559 -0.0235 -0.3009 -0.1545
  378PNCE   D4B 3392  13.593  13.928   7.186 -0.1780  0.1319  0.0591
  378PNCE   C5B 3393  13.161  14.072   7.195  0.2048 -0.2105 -0.0094
  378PNCE   C6B 3394  12.675  14.096   7.150 -0.0611  0.0072  0.3014
  379CHOL   ROH 3395   2.802  10.694   4.692 -0.0835 -0.0226  0.0324
  379CHOL    R1 3396   2.769  10.650   4.969 -0.1138 -0.0492  0.0245
  379CHOL    R2 3397   2.562  10.762   5.114 -0.0887 -0.0067  0.0258
  379CHOL    R3 3398   2.515  10.504   5.186 -0.1707 -0.0020 -0.0097
  379CHOL    R4 3399   2.437  10.662   5.421 -0.0507 -0.0123  0.0397
  379CHOL    R5 3400   2.577  10.494   5.417 -0.1155 -0.0669 -0.0261
  379CHOL    C1 3401   2.320  10.361   5.666 -0.1055 -0.0111  0.0144
  379CHOL    C2 3402   2.250  10.726   5.897 -0.1840  0.2922  0.0268
  380CHOL   ROH 3403   0.855   5.240   4.395  0.3907  0.0450 -0.1070
  380CHOL    R1 3404   0.901   5.177   4.668  0.2207  0.0677 -0.0720
  380CHOL    R2 3405   1.059   5.334   4.832  0.1953  0.0299 -0.0117
  380CHOL    R3 3406   0.838   5.335   4.989  0.1105  0.1414 -0.1291
  380CHOL    R4 3407   1.028   5.508   5.128  0.1524 -0.0180  0.0125
  380CHOL    R5 3408   0.924   5.337   5.213 -0.0077  0.0323 -0.0819
  380CHOL    C1 3409   0.803   5.611   5.449  0.0477  0.0588 -0.0836
  380CHOL    C2 3410   0.716   5.791   5.742  0.1667  0.2229 -0.1345
  381CHOL   ROH 3411   5.205   5.038   5.077  0.2834  0.1086  0.1832
  381CHOL    R1 3412   5.123   5.153   5.323  0.2733  0.0995  0.1834
  381CHOL    R2 3413   4.859   5.215   5.378  0.2834  0.1672  0.1438
  381CHOL    R3 3414   4.903   5.061   5.598  0.1987  0.1274  0.1339
  381CHOL    R4 3415   4.648   5.196   5.651  0.0561 -0.0605 -0.0418
  381CHOL    R5 3416   4.824   5.194   5.780 -0.0508  0.0193  0.1104
  381CHOL    C1 3417   4.566   5.040   6.016 -0.1558 -0.2305 -0.1593
  381CHOL    C2 3418   4.355   4.954   6.292 -0.2868  0.0920  0.2864
  382PNCE   AM1 3419  10.268   7.176   7.868 -0.2283 -0.2108 -0.1309
  382PNCE   AM2 3420  10.384   7.492   7.831  0.1007 -0.0022 -0.0643
  382PNCE   T1A 3421   9.916   7.151   7.881  0.4148  0.0896  0.2470
  382PNCE   C2A 3422   9.592   7.026   7.517 -0.4145 -0.0482 -0.1938
  382PNCE   C3A 3423   9.393   6.906   7.111  0.0827  0.2429 -0.1763
  382PNCE   C1B 3424  10.538   7.434   7.416  0.3776 -0.2257  0.0756
  382PNCE   C2B 3425  10.888   7.739   7.206 -0.1292  0.2898 -0.0982
  382PNCE   C3B 3426  11.255   7.992   6.855 -0.1486  0.0358  0.0996
  382PNCE   D4B 3427  11.584   8.359   6.782  0.0203 -0.0103 -0.2087
  382PNCE   C5B 3428  11.621   8.617   6.398 -0.0179 -0.3348 -0.2304
  382PNCE   C6B 3429  11.680   8.922   6.082 -0.1449  0.1906 -0.1303
  383PNCE   AM1 3430   2.608   5.175   8.806 -0.1249 -0.2021 -0.3637
  383PNCE   AM2 3431   2.320   5.255   8.858  0.1292 -0.0139  0.0334
  383PNCE   T1A 3432   2.885   5.441   8.584  0.0380  0.0254 -0.1484
  383PNCE   C2A 3433   3.031   5.484   8.165 -0.0609 -0.2309  0.0506
  383PNCE   C3A 3434   3.352   5.363   7.894  0.1540 -0.0057  0.2309
  383PNCE   C1B 3435   2.335   5.434   8.396 -0.1916 -0.0124 -0.1447
  383PNCE   C2B 3436   2.547   5.658   8.025 -0.0078  0.0809 -0.1329
  383PNCE   C3B 3437   2.488   5.776   7.624  0.0233 -0.0556  0.0749
  383PNCE   D4B 3438   2.545   5.697   7.270  0.2004  0.0611  0.0966
  383PNCE   C5B 3439   2.627   6.011   7.122  0.1814  0.2282  0.5295
  383PNCE   C6B 3440   2.597   6.184   6.736  0.2469  0.2100  0.1054
  384PNCE   AM1 3441   6.968   8.122   8.523  0.0738  0.0650 -0.0527
  384PNCE   AM2 3442   7.030   7.770   8.531 -0.2371 -0.2025  0.4175
  384PNCE   T1A 3443   6.964   8.226   8.111  0.2933  0.0801 -0.1105
  384PNCE   C2A 3444   6.919   7.986   7.653 -0.1077 -0.4042 -0.1294
  384PNCE   C3A 3445   6.647   7.844   7.319 -0.0490  0.0912  0.1581
  384PNCE   C1B 3446   7.352   7.669   8.248 -0.1772 -0.2802  0.0046
  384PNCE   C2B 3447   7.526   7.352   7.924 -0.1309  0.2151 -0.1500
  384PNCE   C3B 3448   7.402   7.233   7.471 -0.5962  0.0453  0.3464
  384PNCE   D4B 3449   7.386   7.220   6.976 -0.2209 -0.2819 -0.1845
  384PNCE   C5B 3450   7.281   7.091   6.661  0.1305 -0.1105 -0.0472
  384PNCE   C6B 3451   7.070   6.883   6.271  0.1440  0.1662  0.0076
  385CHOL   ROH 3452   6.524   8.091   8.161 -0.0643 -0.0060  0.0056
  385CHOL    R1 3453   6.263   8.190   8.113 -0.0282 -0.0093 -0.2088
  385CHOL    R2 3454   6.180   8.438   8.200 -0.1775 -0.1078 -0.0610
  385CHOL    R3 3455   6.116   8.473   7.938  0.1295  0.1358 -0.1093
  385CHOL    R4 3456   5.921   8.637   8.085 -0.4380 -0.4771 -0.1300
  385CHOL    R5 3457   5.876   8.484   7.937  0.0954 -0.3685 -0.4299
  385CHOL    C1 3458   5.710   8.785   7.772 -0.3013 -0.4634 -0.2156
  385CHOL    C2 3459   5.493   9.172   7.621 -0.3996 -0.0070  0.1934
  386PNCE   AM1 3460  11.721   8.732   3.572 -0.0097 -0.0538 -0.0938
  386PNCE   AM2 3461  11.862   8.947   3.856  0.2663  0.4796 -0.0709
  386PNCE   T1A 3462  11.990   8.432   3.811  0.2709 -0.1093 -0.0102
  386PNCE   C2A 3463  12.308   8.040   3.944 -0.3112  0.0563 -0.0078
  386PNCE   C3A 3464  12.505   7.634   4.061  0.1776 -0.2502 -0.0325
  386PNCE   C1B 3465  11.913   8.757   4.238 -0.2885  0.6010 -0.0763
  386PNCE   C2B 3466  12.138   8.704   4.664 -0.2075  0.2624  0.2292
  386PNCE   C3B 3467  12.074   8.687   5.143 -0.1767 -0.0354  0.0630
  386PNCE   D4B 3468  12.293   8.685   5.437 -0.0776 -0.0018  0.0494
  386PNCE   C5B 3469  12.133   8.777   5.840  0.2839 -0.1321 -0.2656
  386PNCE   C6B 3470  12.113   9.194   5.992 -0.0207  0.2797  0.0947
  387CHOL   ROH 3471  11.965   8.528   7.750 -0.0529  0.2001  0.1292
  387CHOL    R1 3472  12.122   8.745   7.660 -0.0331  0.1751  0.1002
  387CHOL    R2 3473  12.312   8.718   7.461 -0.0152  0.1274  0.1187
  387CHOL    R3 3474  12.174   8.921   7.345  0.0019  0.1098  0.0700
  387CHOL    R4 3475  12.422   8.902   7.190 -0.0132  0.0374  0.0592
  387CHOL    R5 3476  12.342   9.081   7.286  0.0146  0.0725  0.0123
  387CHOL    C1 3477  12.356   9.200   6.923  0.0038 -0.0317 -0.0211
  387CHOL    C2 3478  12.244   9.183   6.501 -0.3397  0.0892  0.2646
  388CHOL   ROH 3479   2.506  15.533   8.876  0.1293  0.0090  0.1005
  388CHOL    R1 3480   2.628  15.539   8.621 -0.0448 -0.1334  0.0119
  388CHOL    R2 3481   2.490  15.481   8.389 -0.3331  0.2109  0.0894
  388CHOL    R3 3482   2.584  15.724   8.310  0.0758  0.0684  0.1128
  388CHOL    R4 3483   2.465  15.608   8.068 -0.2917  0.3580  0.1437
  388CHOL    R5 3484   2.668  15.687   8.089 -0.1244 -0.0234  0.0493
  388CHOL    C1 3485   2.539  15.910   7.808  0.1164  0.3098  0.1971
  388CHOL    C2 3486   2.416  16.113   7.496  0.3232  0.1141  0.1460
  389PNCE   AM1 3487   2.811  13.000   8.518 -0.0359 -0.0414 -0.1322
  389PNCE   AM2 3488   2.636  13.201   8.292 -0.0381  0.0591  0.0441
  389PNCE   T1A 3489   2.761  12.626   8.327 -0.0720 -0.0565  0.1738
  389PNCE   C2A 3490   2.675  12.426   8.000 -0.0941 -0.1585 -0.0710
  389PNCE   C3A 3491   2.517  12.414   7.491 -0.0322 -0.2678  0.0637
  389PNCE   C1B 3492   2.685  12.919   7.939  0.0259 -0.1349 -0.1459
  389PNCE   C2B 3493   2.575  12.900   7.614  0.3252 -0.0408 -0.0416
  389PNCE   C3B 3494   2.217  13.106   7.416 -0.1665  0.0617 -0.1639
  389PNCE   D4B 3495   2.214  13.622   7.311 -0.2529 -0.0210 -0.4349
  389PNCE   C5B 3496   1.986  13.798   6.899 -0.0334 -0.0966 -0.0487
  389PNCE   C6B 3497   2.127  13.999   6.567 -0.0237 -0.0373  0.0542
  390CHOL   ROH 3498   4.359   6.441   6.561 -0.0196 -0.0672 -0.3807
  390CHOL    R1 3499   4.079   6.457   6.600  0.0009 -0.1008 -0.2084
  390CHOL    R2 3500   3.898   6.413   6.396 -0.1196 -0.0623 -0.1137
  390CHOL    R3 3501   3.795   6.231   6.570  0.0031 -0.1175 -0.0980
  390CHOL    R4 3502   3.581   6.277   6.374 -0.1575 -0.0113  0.1033
  390CHOL    R5 3503   3.564   6.294   6.591  0.0287 -0.0959  0.1237
  390CHOL    C1 3504   3.299   6.028   6.525 -0.0644 -0.0335  0.2443
  390CHOL    C2 3505   3.056   5.971   6.674 -0.1115 -0.0738  0.0098
  391XCA    COO 3506   3.035   1.336   4.520 -0.0147  0.1922  0.1741
  391XCA     C1 3507   2.810   1.292   4.904 -0.3434 -0.2145 -0.1169
  391XCA     C2 3508   2.453   1.339   5.188  0.5212 -0.0826  0.1149
  391XCA     C3 3509   2.535   1.228   5.661 -0.0021  0.1100  0.0569
  391XCA     C4 3510   2.153   1.175   5.907 -0.1086  0.1741  0.1788
  391XCA     C5 3511   1.692   1.070   5.936  0.2640 -0.0994 -0.0921
  391XCA     C6 3512   1.431   1.190   5.497  0.1178  0.0418 -0.0348
  392CHOL   ROH 3513   4.680   7.380   7.936 -0.3066 -0.0895  0.0797
  392CHOL    R1 3514   4.483   7.210   7.824 -0.2127 -0.1331 -0.0208
  392CHOL    R2 3515   4.290   7.302   7.649 -0.1731 -0.1664 -0.0805
  392CHOL    R3 3516   4.385   7.103   7.490 -0.0535 -0.1147 -0.0746
  392CHOL    R4 3517   4.132   7.182   7.366  0.0557 -0.0454 -0.2632
  392CHOL    R5 3518   4.190   6.980   7.424 -0.0113 -0.0739 -0.2877
  392CHOL    C1 3519   4.130   6.926   7.052  0.3012  0.0736 -0.3640
  392CHOL    C2 3520   4.327   6.897   6.739  0.1723 -0.3717  0.0939
  393XCA    COO 3521   0.608  12.174   8.978  0.0835 -0.3222 -0.0857
  393XCA     C1 3522   0.504  12.611   8.794 -0.1526 -0.0483  0.1027
  393XCA     C2 3523   0.519  13.043   8.456 -0.0372  0.0863 -0.3206
  393XCA     C3 3524   0.332  13.033   8.081 -0.1739  0.0325  0.0333
  393XCA     C4 3525  -0.022  13.261   7.914 -0.0265  0.5402 -0.0515
  393XCA     C5 3526  -0.123  13.516   7.536  0.1580  0.1159  0.0737
  393XCA     C6 3527  -0.407  13.590   7.203 -0.1298  0.0748 -0.0536
  394PNCE   AM1 3528   1.883   8.748   8.509  0.0420 -0.1207 -0.3795
  394PNCE   AM2 3529   1.547   8.698   8.520  0.0157 -0.0262  0.1254
  394PNCE   T1A 3530   2.063   8.670   8.044 -0.0195 -0.6120 -0.0526
  394PNCE   C2A 3531   1.929   8.609   7.601 -0.0728 -0.0682  0.2517
  394PNCE   C3A 3532   2.008   8.433   7.104 -0.2986 -0.3038 -0.1715
  394PNCE   C1B 3533   1.488   8.558   8.086  0.0912 -0.5319 -0.0541
  394PNCE   C2B 3534   1.410   8.485   7.632 -0.2705 -0.0079 -0.3382
  394PNCE   C3B 3535   1.612   8.207   7.408  0.0582 -0.0485 -0.1916
  394PNCE   D4B 3536   1.729   7.966   7.052  0.1847  0.2573 -0.3835
  394PNCE   C5B 3537   1.708   8.182   6.665  0.4310 -0.1626 -0.1935
  394PNCE   C6B 3538   1.928   8.437   6.508 -0.0578  0.0951 -0.1521
  395CHOL   ROH 3539   7.117  15.016   8.009 -0.2396  0.0946 -0.1143
  395CHOL    R1 3540   7.259  15.127   7.791 -0.1239  0.0894 -0.0397
  395CHOL    R2 3541   7.161  15.124   7.532 -0.0286  0.1712 -0.0671
  395CHOL    R3 3542   7.205  15.392   7.547  0.0587  0.1566 -0.0125
  395CHOL    R4 3543   7.217  15.330   7.260 -0.2689  0.2465 -0.0640
  395CHOL    R5 3544   7.368  15.435   7.377 -0.1062  0.1667 -0.1820
  395CHOL    C1 3545   7.290  15.702   7.116 -0.3268  0.2767 -0.0109
  395CHOL    C2 3546   7.509  15.868   6.862  0.1335  0.1286  0.0447
  396CHOL   ROH 3547  11.405   7.277   6.414 -0.1376  0.3536 -0.2085
  396CHOL    R1 3548  11.176   7.242   6.251 -0.0333 -0.0137 -0.2845
  396CHOL    R2 3549  11.136   7.015   6.098  0.1154 -0.3228  0.1178
  396CHOL    R3 3550  10.899   7.008   6.231  0.0382 -0.1254 -0.0032
  396CHOL    R4 3551  10.914   6.750   6.092 -0.0289 -0.2044  0.1374
  396CHOL    R5 3552  10.750   6.894   6.082  0.0544 -0.1194 -0.0229
  396CHOL    C1 3553  10.563   6.589   6.213 -0.1854  0.0498  0.0353
  396CHOL    C2 3554  10.426   6.451   5.867  0.1938  0.0918 -0.2366
  397PNCE   AM1 3555  14.435   4.817   8.265  0.1634  0.0115 -0.2354
  397PNCE   AM2 3556  14.706   4.972   8.065  0.0263 -0.2724 -0.1170
  397PNCE   T1A 3557  14.523   4.562   7.904  0.0676 -0.1315  0.3292
  397PNCE   C2A 3558  14.419   4.162   7.634  0.0844 -0.0613 -0.1436
  397PNCE   C3A 3559  14.104   3.873   7.517  0.1036  0.0809 -0.3439
  397PNCE   C1B 3560  14.990   4.839   7.747 -0.1918 -0.0431 -0.2287
  397PNCE   C2B 3561  15.316   4.824   7.451  0.0111 -0.4023  0.0806
  397PNCE   C3B 3562  15.663   4.967   7.142  0.1250  0.0619 -0.0285
  397PNCE   D4B 3563  15.926   4.891   6.797 -0.1472  0.1467  0.0859
  397PNCE   C5B 3564  15.713   4.625   6.490  0.3271 -0.2460 -0.1242
  397PNCE   C6B 3565  15.785   4.152   6.248  0.0257 -0.2906  0.0119
  398CHOL   ROH 3566   9.098   2.549   9.114 -0.0331  0.1597  0.0547
  398CHOL    R1 3567   9.061   2.393   8.881  0.0989  0.1367  0.0489
  398CHOL    R2 3568   8.852   2.215   8.854  0.2379 -0.0233  0.0344
  398CHOL    R3 3569   8.804   2.356   8.626  0.1393 -0.0550  0.0337
  398CHOL    R4 3570   8.695   2.089   8.572  0.2175 -0.0993  0.0785
  398CHOL    R5 3571   8.839   2.198   8.450  0.1550 -0.0581  0.0374
  398CHOL    C1 3572   8.559   2.149   8.195  0.1130 -0.1733  0.1036
  398CHOL    C2 3573   8.633   1.811   8.156 -0.0584 -0.4655  0.0576
  399CHOL   ROH 3574   0.940   9.168   4.926  0.0829  0.0997  0.0749
  399CHOL    R1 3575   0.953   9.239   5.200  0.0773 -0.0231  0.1072
  399CHOL    R2 3576   0.951   9.052   5.403  0.0909 -0.1143  0.0211
  399CHOL    R3 3577   1.179   9.178   5.479  0.0812 -0.1317  0.0814
  399CHOL    R4 3578   1.037   9.125   5.729 -0.0261 -0.0581  0.0403
  399CHOL    R5 3579   1.112   9.318   5.661  0.0292 -0.0821  0.0265
  399CHOL    C1 3580   1.301   9.286   5.991 -0.1033 -0.0417  0.1079
  399CHOL    C2 3581   1.586   9.493   6.170 -0.0724  0.0618 -0.1608
  400XCA    COO 3582   0.680  13.874   4.882 -0.1355 -0.0153  0.1711
  400XCA     C1 3583   0.689  13.845   5.301  0.1693 -0.0670  0.0989
  400XCA     C2 3584   0.473  13.846   5.712  0.0775 -0.1033 -0.0185
  400XCA     C3 3585   0.068  13.930   5.822  0.0479  0.0071 -0.0802
  400XCA     C4 3586  -0.251  13.920   5.485 -0.3762 -0.0081 -0.0547
  400XCA     C5 3587  -0.431  13.604   5.201  0.1491  0.0838 -0.0643
  400XCA     C6 3588  -0.650  13.279   4.885  0.0304  0.3174 -0.4413
  401CHOL   ROH 3589   5.899   9.421   7.921 -0.1084  0.2164  0.0648
  401CHOL    R1 3590   5.861   9.444   7.641 -0.2975  0.1750  0.0875
  401CHOL    R2 3591   5.649   9.583   7.531 -0.1266  0.5345  0.2167
  401CHOL    R3 3592   5.847   9.714   7.398  0.0167  0.1101 -0.0102
  401CHOL    R4 3593   5.603   9.775   7.247 -0.0609  0.6732  0.2969
  401CHOL    R5 3594   5.787   9.692   7.167 -0.3288  0.2587  0.0525
  401CHOL    C1 3595   5.761  10.010   6.957  0.1120  0.3554  0.1305
  401CHOL    C2 3596   5.959  10.401   6.813  0.3880 -0.3219  0.1135
  402CHOL   ROH 3597   8.706   3.990   6.460 -0.0469  0.0266  0.1603
  402CHOL    R1 3598   8.756   4.134   6.222 -0.0208  0.0712  0.1920
  402CHOL    R2 3599   8.947   4.333   6.205  0.0186  0.0398  0.2352
  402CHOL    R3 3600   9.038   4.184   5.997 -0.0124  0.0674  0.2025
  402CHOL    R4 3601   9.100   4.460   5.923 -0.1109  0.0833  0.1844
  402CHOL    R5 3602   8.989   4.316   5.803 -0.1124  0.0562  0.2208
  402CHOL    C1 3603   9.274   4.394   5.563 -0.2152  0.1346  0.1243
  402CHOL    C2 3604   9.311   4.664   5.280 -0.5302 -0.0039 -0.0026
  403XCA    COO 3605  12.249   6.721   6.685 -0.4375 -0.2987  0.3002
  403XCA     C1 3606  12.262   6.727   6.178  0.2493  0.1711  0.0142
  403XCA     C2 3607  12.270   6.810   5.670  0.1880  0.2614 -0.1046
  403XCA     C3 3608  12.496   6.992   5.438  0.1342 -0.2848  0.0691
  403XCA     C4 3609  12.420   7.373   5.272 -0.1430 -0.1359  0.0774
  403XCA     C5 3610  12.312   7.666   5.500 -0.0911 -0.3291  0.1155
  403XCA     C6 3611  12.247   8.124   5.595 -0.3028 -0.4847 -0.0758
  404XCA    COO 3612  14.096   9.841   8.885  0.1501 -0.1430  0.1163
  404XCA     C1 3613  14.216   9.975   8.367  0.0709  0.0218 -0.0193
  404XCA     C2 3614  14.516  10.199   8.075  0.1103  0.0870 -0.0166
  404XCA     C3 3615  14.306  10.594   7.853  0.1530  0.1729  0.0549
  404XCA     C4 3616  14.117  11.037   7.971  0.0671  0.1049  0.2606
  404XCA     C5 3617  14.008  11.426   7.714  0.2666 -0.0992 -0.3565
  404XCA     C6 3618  14.058  11.672   7.418 -0.1478 -0.0596 -0.0144
  405PNCE   AM1 3619  14.421   6.814   7.701  0.1522 -0.2036 -0.0471
  405PNCE   AM2 3620  14.143   6.760   7.723 -0.0853 -0.2146  0.1712
  405PNCE   T1A 3621  14.610   7.218   7.458  0.2669 -0.2949 -0.1775
  405PNCE   C2A 3622  15.012   7.389   7.252 -0.0385  0.1000 -0.0737
  405PNCE   C3A 3623  15.258   7.741   7.410 -0.0520 -0.1513  0.1451
  405PNCE   C1B 3624  14.170   6.796   7.269  0.1678 -0.1955  0.0124
  405PNCE   C2B 3625  14.106   6.916   6.951 -0.2197  0.1803 -0.1880
  405PNCE   C3B 3626  13.754   7.069   6.730 -0.0969 -0.1786  0.1326
  405PNCE   D4B 3627  13.390   7.082   6.344 -0.5118 -0.0589 -0.3221
  405PNCE   C5B 3628  12.959   7.141   6.406  0.0673  0.0560  0.0343
  405PNCE   C6B 3629  12.496   7.124   6.436  0.1874 -0.3346 -0.1714
  406PNCE   AM1 3630   5.368   0.995   8.683 -0.0252  0.2188  0.0862
  406PNCE   AM2 3631   5.596   0.690   8.768  0.3874 -0.4433 -0.0076
  406PNCE   T1A 3632   5.059   1.070   8.429 -0.1527  0.1174  0.0712
  406PNCE   C2A 3633   4.942   1.174   8.007  0.0245 -0.2273 -0.1947
  406PNCE   C3A 3634   4.691   1.345   7.693 -0.0856  0.4129  0.0262
  406PNCE   C1B 3635   5.190   0.552   8.426 -0.1881 -0.2753  0.1768
  406PNCE   C2B 3636   4.962   0.570   8.114  0.0102  0.0919 -0.2347
  406PNCE   C3B 3637   4.809   0.388   7.816 -0.1323 -0.1174 -0.0487
  406PNCE   D4B 3638   4.922   0.201   7.511  0.2767  0.1474  0.1578
  406PNCE   C5B 3639   5.144   0.314   7.189 -0.1357 -0.3313  0.2458
  406PNCE   C6B 3640   5.233   0.573   6.678 -0.0812  0.1980  0.0731
  407PNCE   AM1 3641   5.190  15.419   9.075  0.0615  0.0592  0.0175
  407PNCE   AM2 3642   5.542  15.597   8.996  0.4387 -0.1647  0.1205
  407PNCE   T1A 3643   5.061  15.452   8.599  0.0833 -0.0808  0.0889
  407PNCE   C2A 3644   4.993  15.433   8.132  0.4217 -0.2054 -0.5029
  407PNCE   C3A 3645   5.292  15.233   7.873  0.0041  0.0644 -0.2966
  407PNCE   C1B 3646   5.261  15.830   8.748  0.0796 -0.1119  0.0500
  407PNCE   C2B 3647   5.144  15.956   8.322  0.2963 -0.0968 -0.0132
  407PNCE   C3B 3648   5.154  15.802   7.874  0.1987  0.0998  0.1152
  407PNCE   D4B 3649   5.049  15.547   7.617 -0.0744 -0.2932  0.1316
  407PNCE   C5B 3650   5.095  15.672   7.233 -0.1601  0.2052  0.1107
  407PNCE   C6B 3651   5.036  15.427   6.865 -0.3225  0.2149 -0.0405
  408XCA    COO 3652  15.000   2.464   8.189 -0.1219  0.0648 -0.0065
  408XCA     C1 3653  14.701   2.156   8.218  0.1817  0.0354  0.2245
  408XCA     C2 3654  14.594   1.956   7.867 -0.2463 -0.1608  0.4584
  408XCA     C3 3655  14.545   1.603   7.621 -0.1334 -0.0335  0.4863
  408XCA     C4 3656  14.689   1.433   7.210  0.1742  0.1746 -0.0577
  408XCA     C5 3657  14.477   1.299   6.809  0.1393  0.2637 -0.1212
  408XCA     C6 3658  14.450   0.806   6.785 -0.3734 -0.0041  0.2382
  409XCA    COO 3659   4.685  12.398   9.162 -0.0898 -0.1239 -0.0274
  409XCA     C1 3660   4.755  12.613   8.808  0.1300 -0.0439 -0.1430
  409XCA     C2 3661   4.696  12.670   8.412  0.2362  0.4875  0.4004
  409XCA     C3 3662   4.468  12.680   8.079 -0.2032  0.0351  0.0906
  409XCA     C4 3663   4.197  12.749   7.774  0.0892  0.0167  0.2081
  409XCA     C5 3664   4.114  12.783   7.350 -0.1597 -0.1927  0.2011
  409XCA     C6 3665   3.799  12.980   7.024  0.0676 -0.0536  0.0786
  410CHOL   ROH 3666   1.656  13.868   4.771  0.2600 -0.1587 -0.0334
  410CHOL    R1 3667   1.585  13.920   5.039  0.2082 -0.1255 -0.0530
  410CHOL    R2 3668   1.611  13.732   5.240  0.0398 -0.1485 -0.0481
  410CHOL    R3 3669   1.755  13.928   5.361  0.1171 -0.2329 -0.0024
  410CHOL    R4 3670   1.658  13.760   5.581  0.0259 -0.2236 -0.0400
  410CHOL    R5 3671   1.633  13.976   5.562  0.1239 -0.2110 -0.0056
  410CHOL    C1 3672   1.820  13.961   5.894  0.0904 -0.3466  0.0076
  410CHOL    C2 3673   2.044  14.214   6.112  0.2560  0.0936  0.1576
  411PNCE   AM1 3674   1.278  14.625   8.444  0.0217 -0.3208  0.1816
  411PNCE   AM2 3675   1.399  14.662   8.176  0.0176  0.1693 -0.0394
  411PNCE   T1A 3676   1.225  14.250   8.105 -0.1530  0.0036  0.0370
  411PNCE   C2A 3677   1.067  14.177   7.847  0.2578 -0.1242 -0.1405
  411PNCE   C3A 3678   1.005  14.196   7.433  0.0008  0.0791 -0.1254
  411PNCE   C1B 3679   1.666  14.744   7.779  0.2729  0.1384 -0.2262
  411PNCE   C2B 3680   1.912  15.133   7.591 -0.3110 -0.1611  0.0276
  411PNCE   C3B 3681   2.048  15.406   7.168 -0.2961 -0.0779 -0.1085
  411PNCE   D4B 3682   1.980  15.733   6.845  0.3512 -0.1743  0.0021
  411PNCE   C5B 3683   2.388  15.900   6.677  0.0591  0.0799 -0.2755
  411PNCE   C6B 3684   2.701  16.224   6.593  0.2564 -0.3008 -0.1743
  412CHOL   ROH 3685  14.080  14.434   6.485 -0.0950 -0.1819  0.0785
  412CHOL    R1 3686  14.236  14.475   6.253 -0.1539 -0.1636  0.0429
  412CHOL    R2 3687  14.243  14.716   6.118  0.0710 -0.0494  0.2601
  412CHOL    R3 3688  14.511  14.692   6.154  0.0673 -0.4034  0.1106
  412CHOL    R4 3689  14.483  14.849   5.909  0.1090  0.2190  0.4690
  412CHOL    R5 3690  14.600  14.667   5.934 -0.0525  0.0277 -0.0027
  412CHOL    C1 3691  14.876  14.905   5.822  0.1276  0.0429  0.4503
  412CHOL    C2 3692  15.030  14.994   5.487 -0.1044  0.0415  0.2251
  413CHOL   ROH 3693   6.395   7.593   5.007 -0.0564  0.1489  0.0021
  413CHOL    R1 3694   6.387   7.452   5.253 -0.0921  0.0698 -0.0443
  413CHOL    R2 3695   6.566   7.499   5.458  0.0259 -0.1597 -0.0911
  413CHOL    R3 3696   6.340   7.535   5.604  0.1080 -0.0094  0.0026
  413CHOL    R4 3697   6.547   7.477   5.802  0.1765 -0.0154 -0.0719
  413CHOL    R5 3698   6.356   7.375   5.780  0.1237  0.0537  0.0584
  413CHOL    C1 3699   6.323   7.498   6.140  0.3412  0.2098  0.0272
  413CHOL    C2 3700   6.078   7.629   6.449 -0.4900  0.0965  0.0154
  414CHOL   ROH 3701  12.054   1.227   5.948  0.2051  0.3403  0.3167
  414CHOL    R1 3702  12.255   1.074   6.076  0.1876  0.1908  0.1697
  414CHOL    R2 3703  12.383   0.863   5.952 -0.0565  0.0949  0.0738
  414CHOL    R3 3704  12.608   1.001   6.020  0.0966 -0.0697 -0.0874
  414CHOL    R4 3705  12.664   0.723   6.097 -0.1542 -0.0696  0.1068
  414CHOL    R5 3706  12.680   0.899   6.225  0.0490  0.0141 -0.0289
  414CHOL    C1 3707  13.038   0.771   6.245 -0.0673 -0.3199 -0.0253
  414CHOL    C2 3708  13.007   0.297   6.165  0.0047  0.1645  0.2235
  415XCA    COO 3709   7.316   6.068   4.086  0.0058 -0.2233 -0.0243
  415XCA     C1 3710   7.400   6.098   4.524 -0.1446 -0.0535  0.1873
  415XCA     C2 3711   7.375   6.142   4.964  0.3948 -0.0614 -0.2036
  415XCA     C3 3712   7.421   6.427   5.127  0.2529 -0.3570 -0.1341
  415XCA     C4 3713   7.506   6.651   5.519 -0.1033 -0.0126 -0.3205
  415XCA     C5 3714   7.787   6.804   5.835  0.4177 -0.2709 -0.1348
  415XCA     C6 3715   8.036   6.658   6.108  0.0814  0.0570  0.1255
  416PNCE   AM1 3716  13.037  15.605   8.921  0.0594 -0.0107  0.1344
  416PNCE   AM2 3717  13.310  15.441   8.768 -0.4192 -0.0381  0.0628
  416PNCE   T1A 3718  12.925  15.814   8.462 -0.0420  0.1426  0.1399
  416PNCE   C2A 3719  12.816  15.872   7.991  0.0354 -0.0779  0.3931
  416PNCE   C3A 3720  12.585  16.210   7.783 -0.3652 -0.0913  0.1236
  416PNCE   C1B 3721  13.281  15.551   8.348  0.2940  0.1157  0.1014
  416PNCE   C2B 3722  13.343  15.699   7.918 -0.2132  0.0920 -0.0715
  416PNCE   C3B 3723  13.155  15.701   7.532 -0.0353 -0.1201  0.0577
  416PNCE   D4B 3724  12.980  15.764   7.177 -0.0037  0.1107 -0.1967
  416PNCE   C5B 3725  12.964  16.128   7.148 -0.1027 -0.4125 -0.2348
  416PNCE   C6B 3726  13.169  16.544   7.081 -0.0653  0.3502  0.1892
  417CHOL   ROH 3727   7.726  14.544   8.228 -0.0328  0.0179  0.1563
  417CHOL    R1 3728   7.546  14.510   8.012  0.0540 -0.0211  0.0899
  417CHOL    R2 3729   7.343  14.688   7.958 -0.0177 -0.1107  0.0674
  417CHOL    R3 3730   7.456  14.693   7.711  0.0588  0.0051  0.1039
  417CHOL    R4 3731   7.167  14.716   7.662  0.0453 -0.2910  0.0115
  417CHOL    R5 3732   7.303  14.570   7.573  0.2266 -0.1541  0.0542
  417CHOL    C1 3733   7.170  14.737   7.257  0.1537 -0.2872  0.0133
  417CHOL    C2 3734   6.997  14.980   6.943  0.1248 -0.1970  0.0745
  418CHOL   ROH 3735   9.781   0.989   9.521  0.0284 -0.2818  0.0583
  418CHOL    R1 3736   9.917   1.060   9.283 -0.0303 -0.1016  0.0785
  418CHOL    R2 3737   9.917   0.901   9.058  0.2234 -0.1081  0.0874
  418CHOL    R3 3738   9.827   1.127   8.937 -0.0648 -0.2318  0.0601
  418CHOL    R4 3739  10.009   1.004   8.742  0.3791  0.1337  0.2078
  418CHOL    R5 3740  10.017   1.209   8.817 -0.0706  0.1440  0.2807
  418CHOL    C1 3741   9.978   1.276   8.443  0.1993  0.1584  0.2521
  418CHOL    C2 3742   9.987   1.310   8.016 -0.1384  0.0398 -0.3613
  419XCA    COO 3743   7.910   1.301   7.715 -0.0889  0.2772 -0.0629
  419XCA     C1 3744   8.370   1.420   7.864 -0.0430  0.2391  0.0244
  419XCA     C2 3745   8.596   1.708   7.654  0.0062 -0.0477 -0.1273
  419XCA     C3 3746   8.469   2.099   7.487  0.1065  0.0236  0.0348
  419XCA     C4 3747   8.350   2.567   7.264 -0.2116  0.0807  0.1457
  419XCA     C5 3748   8.568   2.742   7.050 -0.1441 -0.2593 -0.2568
  419XCA     C6 3749   8.943   3.001   7.132  0.2816  0.0949 -0.3000
  420PNCE   AM1 3750   3.858   3.141   9.203  0.1284 -0.3636  0.0668
  420PNCE   AM2 3751   4.007   2.814   9.059  0.2755  0.0114  0.2244
  420PNCE   T1A 3752   3.595   2.937   8.815 -0.3857 -0.1738 -0.1046
  420PNCE   C2A 3753   3.526   2.689   8.451 -0.2063 -0.0577 -0.1997
  420PNCE   C3A 3754   3.965   2.518   8.142 -0.0536 -0.2798  0.1108
  420PNCE   C1B 3755   4.029   2.737   8.592  0.2096 -0.6839 -0.0657
  420PNCE   C2B 3756   4.419   2.498   8.343 -0.3150  0.1052 -0.1996
  420PNCE   C3B 3757   4.660   2.184   7.989 -0.1038  0.2910 -0.1199
  420PNCE   D4B 3758   4.806   1.971   7.646  0.2472 -0.1240 -0.1650
  420PNCE   C5B 3759   4.702   2.088   7.285  0.0443 -0.0132  0.1609
  420PNCE   C6B 3760   4.594   2.402   6.972  0.1477 -0.1849 -0.0931
  421CHOL   ROH 3761   5.995   0.609   6.697 -0.0816  0.1046  0.0231
  421CHOL    R1 3762   5.900   0.429   6.501 -0.0252  0.0190  0.0735
  421CHOL    R2 3763   5.650   0.313   6.514 -0.0054 -0.0253  0.0850
  421CHOL    R3 3764   5.624   0.417   6.265  0.0031 -0.1139  0.0469
  421CHOL    R4 3765   5.369   0.281   6.315  0.0038 -0.0968  0.0835
  421CHOL    R5 3766   5.500   0.252   6.143  0.0097 -0.1563  0.0998
  421CHOL    C1 3767   5.181   0.360   5.965  0.0172 -0.2217  0.0469
  421CHOL    C2 3768   4.800   0.386   5.876 -0.1630 -0.0036  0.1647
  422PNCE   AM1 3769  11.833  10.778   8.554 -0.4186  0.2333  0.0971
  422PNCE   AM2 3770  12.126  10.968   8.501 -0.3693  0.0610  0.2313
  422PNCE   T1A 3771  11.846  10.702   8.073  0.2510  0.0021 -0.2547
  422PNCE   C2A 3772  11.503  10.935   7.813  0.1009  0.1574 -0.1430
  422PNCE   C3A 3773  11.540  11.061   7.434 -0.1487  0.0950  0.0496
  422PNCE   C1B 3774  12.355  11.053   8.095  0.1363 -0.0495  0.0190
  422PNCE   C2B 3775  12.525  11.168   7.744 -0.0326 -0.2637  0.0473
  422PNCE   C3B 3776  12.704  11.322   7.351  0.1866 -0.0818  0.0421
  422PNCE   D4B 3777  13.019  11.544   7.277  0.2301  0.2021  0.1437
  422PNCE   C5B 3778  13.143  11.519   7.710 -0.1773 -0.0263  0.1284
  422PNCE   C6B 3779  12.983  11.526   8.033 -0.0341 -0.0016  0.3124
  423PNCE   AM1 3780   0.371  12.432   8.296 -0.0809  0.0235  0.1114
  423PNCE   AM2 3781   0.162  12.144   8.293  0.1378  0.2206  0.0818
  423PNCE   T1A 3782   0.516  12.567   7.915  0.0903 -0.1187 -0.2616
  423PNCE   C2A 3783   0.422  12.909   7.633 -0.0302 -0.0831 -0.4051
  423PNCE   C3A 3784   0.138  13.032   7.350  0.2642 -0.3783 -0.0932
  423PNCE   C1B 3785   0.167  12.227   7.793  0.0107 -0.1697 -0.0696
  423PNCE   C2B 3786   0.213  12.110   7.374  0.2390 -0.0361  0.0454
  423PNCE   C3B 3787   0.403  11.958   7.132  0.2640  0.1223 -0.1098
  423PNCE   D4B 3788   0.639  11.706   6.804 -0.0923  0.1046  0.2768
  423PNCE   C5B 3789   0.574  11.250   6.781  0.1701  0.2041  0.1372
  423PNCE   C6B 3790   0.729  10.913   7.033 -0.0718 -0.2356  0.2843
  424CHOL   ROH 3791  12.645   8.480   3.737 -0.1924 -0.0193  0.1957
  424CHOL    R1 3792  12.868   8.460   3.911 -0.0907 -0.2826  0.0395
  424CHOL    R2 3793  12.915   8.642   4.114  0.4169 -0.1738 -0.1677
  424CHOL    R3 3794  12.921   8.418   4.268  0.1048 -0.0452  0.0416
  424CHOL    R4 3795  13.059   8.621   4.427  0.4195 -0.0849 -0.1619
  424CHOL    R5 3796  13.135   8.424   4.374  0.1311 -0.2541  0.0113
  424CHOL    C1 3797  13.148   8.400   4.755  0.1282  0.0875  0.0379
  424CHOL    C2 3798  12.987   8.323   5.069  0.5379 -0.0101 -0.2330
  425PNCE   AM1 3799  10.877  13.642   8.509  0.0778 -0.1785  0.0977
  425PNCE   AM2 3800  10.625  13.483   8.635 -0.0024  0.1836  0.0360
  425PNCE   T1A 3801  10.558  13.987   8.317 -0.2311  0.2451  0.2220
  425PNCE   C2A 3802  10.588  14.136   7.911  0.0134 -0.1785 -0.2898
  425PNCE   C3A 3803  10.498  14.498   7.630  0.1529  0.2208  0.1493
  425PNCE   C1B 3804  10.578  13.421   8.216 -0.0792  0.1887  0.1530
  425PNCE   C2B 3805  10.585  13.635   7.928 -0.0928 -0.2655  0.0540
  425PNCE   C3B 3806  10.567  13.791   7.467 -0.2021  0.1770 -0.1590
  425PNCE   D4B 3807  10.222  14.110   7.373  0.1476  0.2189  0.0063
  425PNCE   C5B 3808   9.946  14.309   7.528  0.2547 -0.3726  0.0352
  425PNCE   C6B 3809   9.777  14.191   7.990  0.5189 -0.3064  0.2889
  426PNCE   AM1 3810  10.657   0.357   9.217  0.1573  0.0283 -0.0788
  426PNCE   AM2 3811  10.454   0.212   9.194  0.0781 -0.0429  0.0686
  426PNCE   T1A 3812  10.890   0.512   8.845 -0.0564 -0.1514 -0.2757
  426PNCE   C2A 3813  11.343   0.452   8.665  0.0322  0.0562  0.4216
  426PNCE   C3A 3814  11.749   0.483   8.601 -0.2021  0.0885 -0.1424
  426PNCE   C1B 3815  10.274   0.558   8.820 -0.1672 -0.1119  0.3151
  426PNCE   C2B 3816  10.345   0.829   8.504  0.0561 -0.2462 -0.0679
  426PNCE   C3B 3817  10.730   0.976   8.367  0.4335  0.0862  0.0942
  426PNCE   D4B 3818  10.911   0.997   8.685 -0.1543 -0.1244  0.1833
  426PNCE   C5B 3819  11.396   0.927   8.584  0.0580 -0.4463 -0.3161
  426PNCE   C6B 3820  11.844   1.245   8.575 -0.0268  0.2127  0.2222
  427PNCE   AM1 3821  15.515  10.928   8.762  0.2966  0.3144 -0.0676
  427PNCE   AM2 3822  15.252  11.078   8.886 -0.2373 -0.0218  0.0380
  427PNCE   T1A 3823  15.448  10.965   8.249 -0.1468 -0.1503 -0.2962
  427PNCE   C2A 3824  15.155  11.236   7.934 -0.2007  0.0561  0.2003
  427PNCE   C3A 3825  15.041  11.301   7.476 -0.0011  0.1269  0.1064
  427PNCE   C1B 3826  14.870  11.293   8.658 -0.0348 -0.0715 -0.0243
  427PNCE   C2B 3827  14.494  11.420   8.564 -0.1498  0.1904  0.1471
  427PNCE   C3B 3828  14.342  11.809   8.568 -0.0897 -0.1433 -0.2551
  427PNCE   D4B 3829  14.067  12.175   8.515  0.0473  0.2575 -0.0198
  427PNCE   C5B 3830  14.143  12.515   8.207 -0.2156  0.2782  0.1254
  427PNCE   C6B 3831  14.265  12.696   7.787 -0.0911  0.3649  0.0424
  428PNCE   AM1 3832  10.816   6.611   7.000  0.0167  0.2493 -0.3088
  428PNCE   AM2 3833  10.774   6.792   7.325 -0.0290 -0.0150  0.1225
  428PNCE   T1A 3834  10.798   6.645   6.615 -0.1169  0.2439 -0.0341
  428PNCE   C2A 3835  10.618   6.909   6.586  0.1042 -0.0260 -0.2063
  428PNCE   C3A 3836  10.364   6.952   6.363 -0.0482 -0.0010 -0.1088
  428PNCE   C1B 3837  10.351   6.723   7.133  0.2240  0.0367  0.0665
  428PNCE   C2B 3838  10.189   6.703   6.789 -0.1085 -0.0587 -0.0995
  428PNCE   C3B 3839  10.094   6.541   6.496  0.1927 -0.2046  0.1116
  428PNCE   D4B 3840  10.012   6.181   6.173  0.2336  0.0831 -0.1496
  428PNCE   C5B 3841   9.694   5.964   5.977  0.2574 -0.1534 -0.2071
  428PNCE   C6B 3842   9.765   5.743   5.611  0.1805  0.0107  0.3205
  429CHOL   ROH 3843   7.160   4.335   7.946  0.1930  0.2390 -0.1883
  429CHOL    R1 3844   7.232   4.171   7.727  0.1958  0.1262 -0.1035
  429CHOL    R2 3845   7.083   4.160   7.494  0.1135 -0.1095 -0.0427
  429CHOL    R3 3846   7.322   4.220   7.378  0.0397 -0.0647 -0.1727
  429CHOL    R4 3847   7.141   4.164   7.153 -0.0366 -0.2420 -0.0708
  429CHOL    R5 3848   7.335   4.072   7.190  0.0183 -0.1463 -0.1109
  429CHOL    C1 3849   7.398   4.223   6.845 -0.1932 -0.2772 -0.2092
  429CHOL    C2 3850   7.271   4.449   6.515 -0.2503 -0.2527 -0.2670
  430PNCE   AM1 3851  15.344   7.307   7.791  0.1694 -0.0504 -0.2483
  430PNCE   AM2 3852  15.547   7.555   7.936  0.3474  0.3511  0.3739
  430PNCE   T1A 3853  15.577   7.349   7.439  0.0421  0.2387  0.0903
  430PNCE   C2A 3854  15.769   7.251   7.088  0.2038  0.0264 -0.3367
  430PNCE   C3A 3855  15.650   7.246   6.586 -0.0897  0.0466 -0.2411
  430PNCE   C1B 3856  15.913   7.759   7.614 -0.1149 -0.2180 -0.3811
  430PNCE   C2B 3857  16.365   7.737   7.351  0.0722 -0.1321 -0.3841
  430PNCE   C3B 3858  16.813   8.030   7.180  0.0340 -0.0398 -0.1208
  430PNCE   D4B 3859  17.109   8.126   6.897  0.1267 -0.0065 -0.3481
  430PNCE   C5B 3860  17.388   8.518   6.991 -0.0583 -0.1011 -0.2893
  430PNCE   C6B 3861  17.348   8.823   7.293  0.0076  0.1206  0.0136
  431PNCE   AM1 3862   1.288   1.410   8.679  0.1304 -0.0963  0.0837
  431PNCE   AM2 3863   1.000   1.211   8.614 -0.0469  0.0616  0.2154
  431PNCE   T1A 3864   1.643   1.650   8.652  0.0221 -0.0665 -0.1424
  431PNCE   C2A 3865   1.758   2.004   8.582  0.2366  0.0095  0.0150
  431PNCE   C3A 3866   2.035   2.335   8.584 -0.0744 -0.1058 -0.2550
  431PNCE   C1B 3867   1.125   1.261   8.238  0.2222  0.0350  0.1358
  431PNCE   C2B 3868   1.455   0.970   8.076 -0.0412  0.3393 -0.0472
  431PNCE   C3B 3869   1.645   0.820   7.734 -0.0139 -0.1170  0.1655
  431PNCE   D4B 3870   1.679   0.939   7.355  0.2114 -0.0801 -0.0142
  431PNCE   C5B 3871   2.008   0.981   7.016  0.0990  0.0493  0.0994
  431PNCE   C6B 3872   2.399   1.083   6.846  0.0940 -0.0911  0.0655
  432XCA    COO 3873   3.160   7.169   4.574  0.4164  0.0668 -0.0546
  432XCA     C1 3874   3.196   7.550   4.805 -0.2556 -0.0848  0.1847
  432XCA     C2 3875   2.902   7.840   4.862  0.1444 -0.0927  0.1557
  432XCA     C3 3876   2.567   7.993   5.194 -0.0881  0.1873  0.3872
  432XCA     C4 3877   2.722   8.301   5.575 -0.1453 -0.4114  0.0369
  432XCA     C5 3878   2.705   8.273   6.015 -0.0945 -0.3281  0.1844
  432XCA     C6 3879   2.526   8.254   6.366 -0.0378  0.2208  0.0465
  433XCA    COO 3880  10.278  11.804   5.086  0.1665 -0.2780  0.1045
  433XCA     C1 3881  10.227  11.672   5.553  0.0239 -0.0196 -0.1284
  433XCA     C2 3882  10.239  11.601   5.934  0.2100 -0.0455 -0.1455
  433XCA     C3 3883   9.964  11.530   6.282 -0.1156 -0.5253 -0.0939
  433XCA     C4 3884   9.614  11.266   6.506 -0.2178  0.0694 -0.0677
  433XCA     C5 3885   9.610  10.749   6.607  0.1091  0.0299 -0.0434
  433XCA     C6 3886   9.806  10.366   6.739  0.4633  0.3051  0.1733
  434CHOL   ROH 3887  11.195   6.363   6.864  0.1034  0.0335  0.0628
  434CHOL    R1 3888  11.187   6.286   6.592 -0.2171 -0.1729  0.1242
  434CHOL    R2 3889  10.951   6.225   6.461 -0.4686  0.4301  0.2571
  434CHOL    R3 3890  11.037   6.414   6.285  0.0596  0.0447  0.0766
  434CHOL    R4 3891  10.835   6.262   6.137 -0.4415  0.5126  0.2569
  434CHOL    R5 3892  11.040   6.302   6.074 -0.3224 -0.1451  0.1660
  434CHOL    C1 3893  10.849   6.461   5.784  0.0702  0.1989  0.0874
  434CHOL    C2 3894  11.064   6.473   5.415 -0.0538  0.0060  0.0287
  435CHOL   ROH 3895   5.219   2.093   5.268  0.0129  0.1197 -0.0882
  435CHOL    R1 3896   5.118   2.071   5.532  0.1342 -0.0652 -0.0556
  435CHOL    R2 3897   4.873   2.175   5.606  0.2559  0.0573  0.1746
  435CHOL    R3 3898   4.828   1.921   5.693  0.0977  0.0030 -0.0557
  435CHOL    R4 3899   4.656   2.089   5.861  0.1080 -0.0506  0.0154
  435CHOL    R5 3900   4.803   1.943   5.930  0.0117 -0.1814 -0.0441
  435CHOL    C1 3901   4.487   1.801   6.091 -0.1267 -0.1644 -0.2934
  435CHOL    C2 3902   4.489   1.950   6.455 -0.0752  0.2829 -0.1225
  436XCA    COO 3903   8.726   9.153   8.445  0.0349 -0.1145  0.3567
  436XCA     C1 3904   8.717   9.350   8.086 -0.1639  0.2062  0.1852
  436XCA     C2 3905   8.735   9.680   7.838 -0.2038 -0.0651 -0.0654
  436XCA     C3 3906   8.734  10.142   7.761  0.1588  0.0828 -0.1804
  436XCA     C4 3907   8.660  10.357   7.449  0.4156  0.1544  0.1502
  436XCA     C5 3908   8.677  10.504   7.143  0.1040 -0.2399 -0.0853
  436XCA     C6 3909   8.779  10.872   7.000 -0.3360 -0.2318  0.4131
  437CHOL   ROH 3910   7.800  11.844   8.266  0.1057  0.1419  0.0706
  437CHOL    R1 3911   7.838  11.692   8.030 -0.1021  0.1182  0.0522
  437CHOL    R2 3912   7.757  11.781   7.781  0.0520  0.2774  0.0630
  437CHOL    R3 3913   8.016  11.731   7.715 -0.0119 -0.1052  0.0717
  437CHOL    R4 3914   7.868  11.702   7.464 -0.0241  0.4479 -0.0081
  437CHOL    R5 3915   8.003  11.555   7.553 -0.2944  0.0952 -0.1384
  437CHOL    C1 3916   8.176  11.609   7.217 -0.1283  0.1880 -0.0411
  437CHOL    C2 3917   8.041  11.402   6.842  0.1680  0.1707 -0.3416
  438PNCE   AM1 3918   6.642   6.333   8.198 -0.0359 -0.2540  0.1414
  438PNCE   AM2 3919   6.376   6.307   8.383  0.1661  0.4021 -0.2340
  438PNCE   T1A 3920   6.589   6.489   7.930 -0.2584  0.1841 -0.1647
  438PNCE   C2A 3921   6.621   6.582   7.537  0.0459  0.4485 -0.0498
  438PNCE   C3A 3922   6.657   6.589   7.115  0.2069  0.2221 -0.1006
  438PNCE   C1B 3923   6.322   6.073   7.910 -0.3312 -0.4032  0.0328
  438PNCE   C2B 3924   6.012   5.917   7.720  0.2516  0.1996  0.0050
  438PNCE   C3B 3925   5.705   5.642   7.472 -0.2204  0.2768  0.2059
  438PNCE   D4B 3926   5.402   5.379   7.514  0.2763  0.1447  0.2056
  438PNCE   C5B 3927   5.437   5.179   7.850  0.2931 -0.1835  0.0593
  438PNCE   C6B 3928   5.765   4.785   7.916  0.2453  0.1825  0.2558
  439XCA    COO 3929  15.764   7.124   8.180 -0.0587  0.1164  0.0253
  439XCA     C1 3930  16.187   6.975   7.960  0.1843  0.1855  0.2015
  439XCA     C2 3931  16.370   6.886   7.563  0.0862 -0.1456 -0.0471
  439XCA     C3 3932  16.051   6.793   7.202  0.0366  0.2090 -0.1763
  439XCA     C4 3933  16.126   6.809   6.777  0.2504 -0.0025 -0.0111
  439XCA     C5 3934  15.903   6.855   6.356  0.1377  0.2520  0.2729
  439XCA     C6 3935  15.935   6.736   5.958 -0.0970 -0.1382 -0.0600
  440CHOL   ROH 3936  15.738   6.618   4.477  0.2015 -0.1478 -0.1159
  440CHOL    R1 3937  15.642   6.402   4.632  0.1934 -0.0261  0.0529
  440CHOL    R2 3938  15.649   6.401   4.908  0.1148  0.2240  0.0592
  440CHOL    R3 3939  15.383   6.351   4.883  0.1304  0.1588  0.0267
  440CHOL    R4 3940  15.442   6.297   5.165  0.1120  0.1496  0.0267
  440CHOL    R5 3941  15.344   6.162   5.025  0.1617  0.1376  0.0056
  440CHOL    C1 3942  15.072   6.189   5.290  0.1250  0.0450 -0.0227
  440CHOL    C2 3943  14.926   5.979   5.527 -0.1105 -0.0746 -0.2006
  441CHOL   ROH 3944   2.938  11.742   8.620  0.3252  0.2250 -0.2725
  441CHOL    R1 3945   2.763  11.731   8.398  0.1100 -0.0724 -0.0954
  441CHOL    R2 3946   2.847  11.781   8.140 -0.2317  0.0547 -0.1875
  441CHOL    R3 3947   2.736  11.537   8.092  0.1133 -0.1349 -0.0563
  441CHOL    R4 3948   2.822  11.634   7.828 -0.3751  0.0286 -0.1646
  441CHOL    R5 3949   2.623  11.564   7.883 -0.1982 -0.3123  0.0835
  441CHOL    C1 3950   2.704  11.320   7.601 -0.1348 -0.1646 -0.0281
  441CHOL    C2 3951   2.765  11.485   7.385  0.1898  0.1704  0.1386
  442CHOL   ROH 3952  11.496   9.375   5.397  0.0552  0.1050 -0.0875
  442CHOL    R1 3953  11.509   9.110   5.494  0.0379  0.1735  0.1076
  442CHOL    R2 3954  11.569   8.894   5.332 -0.4036 -0.0078  0.1662
  442CHOL    R3 3955  11.762   8.849   5.518 -0.0972  0.0167 -0.1350
  442CHOL    R4 3956  11.648   8.584   5.462 -0.3147  0.0327  0.2080
  442CHOL    R5 3957  11.669   8.678   5.658  0.0651  0.1360  0.1244
  442CHOL    C1 3958  11.875   8.361   5.713  0.0248  0.0794 -0.0503
  442CHOL    C2 3959  11.890   8.338   6.105  0.0904 -0.1168 -0.2654
  443CHOL   ROH 3960  13.802  13.267   6.338  0.1126 -0.0299 -0.3124
  443CHOL    R1 3961  13.944  13.087   6.504  0.1047  0.0178 -0.2540
  443CHOL    R2 3962  14.216  13.046   6.480  0.1256  0.0957 -0.1540
  443CHOL    R3 3963  14.216  13.108   6.745  0.0116  0.1063 -0.1559
  443CHOL    R4 3964  14.431  12.911   6.715  0.0354  0.1191 -0.0568
  443CHOL    R5 3965  14.264  12.901   6.855 -0.0219  0.1147 -0.1263
  443CHOL    C1 3966  14.556  12.892   7.101 -0.1242  0.1428 -0.0022
  443CHOL    C2 3967  14.583  13.079   7.552 -0.3858  0.2639  0.2020
  444CHOL   ROH 3968   8.082  15.571   5.135  0.0824  0.0514  0.0443
  444CHOL    R1 3969   8.081  15.420   5.374  0.2300 -0.0029  0.0121
  444CHOL    R2 3970   8.281  15.439   5.563  0.1547  0.2418  0.0713
  444CHOL    R3 3971   8.073  15.490   5.731  0.0321 -0.0853  0.0250
  444CHOL    R4 3972   8.312  15.487   5.904 -0.0235  0.1214  0.1056
  444CHOL    R5 3973   8.129  15.369   5.931  0.1060 -0.1121 -0.0120
  444CHOL    C1 3974   8.135  15.562   6.260 -0.2424 -0.2559  0.0822
  444CHOL    C2 3975   8.530  15.437   6.563  0.1649 -0.0315 -0.1031
  445CHOL   ROH 3976   7.008   0.541   5.246  0.2161 -0.1105  0.1196
  445CHOL    R1 3977   6.952   0.629   5.509  0.1188 -0.1063  0.0977
  445CHOL    R2 3978   6.791   0.487   5.683  0.0439 -0.0955  0.0350
  445CHOL    R3 3979   7.007   0.505   5.847 -0.0198 -0.1071  0.1212
  445CHOL    R4 3980   6.791   0.405   6.018 -0.1516  0.0986  0.0849
  445CHOL    R5 3981   6.917   0.580   6.056 -0.0807  0.0608  0.0387
  445CHOL    C1 3982   6.994   0.375   6.368 -0.3251  0.2007  0.1949
  445CHOL    C2 3983   7.034   0.187   6.716  0.0715 -0.0783 -0.4675
  446XCA    COO 3984  11.195  11.888   8.956 -0.1279 -0.0684  0.0435
  446XCA     C1 3985  11.193  11.965   8.528  0.0135  0.0980  0.2986
  446XCA     C2 3986  10.950  11.963   8.111  0.0120  0.3236 -0.1540
  446XCA     C3 3987  10.988  11.726   7.786  0.0252 -0.0156  0.3280
  446XCA     C4 3988  11.005  11.842   7.366 -0.1079  0.1330  0.0518
  446XCA     C5 3989  11.138  11.894   6.959  0.0154  0.1161  0.0633
  446XCA     C6 3990  10.907  11.866   6.525 -0.2938 -0.3214  0.1201
  447PNCE   AM1 3991  14.229   5.277   7.401 -0.0387  0.2599 -0.0248
  447PNCE   AM2 3992  14.059   5.326   7.153  0.0592  0.0458  0.0099
  447PNCE   T1A 3993  14.443   4.989   7.067  0.1099 -0.0844 -0.0816
  447PNCE   C2A 3994  14.671   4.743   6.792 -0.0303 -0.3454 -0.0760
  447PNCE   C3A 3995  14.898   4.603   6.538 -0.1712  0.0314 -0.3613
  447PNCE   C1B 3996  14.224   5.194   6.722 -0.0071 -0.0737  0.3125
  447PNCE   C2B 3997  14.312   4.969   6.376  0.1951  0.2793 -0.0197
  447PNCE   C3B 3998  14.547   4.713   6.184  0.1207  0.3407 -0.1924
  447PNCE   D4B 3999  14.880   4.366   6.003 -0.1872  0.0302  0.2227
  447PNCE   C5B 4000  15.312   4.520   6.137 -0.0133  0.0611  0.2282
  447PNCE   C6B 4001  15.763   4.586   6.013  0.0620  0.2358  0.4068
  448PNCE   AM1 4002  11.377   4.508   8.156 -0.2869  0.0759 -0.0178
  448PNCE   AM2 4003  11.609   4.584   7.892  0.1737  0.2304  0.0746
  448PNCE   T1A 4004  11.147   4.082   7.966 -0.0469 -0.0483 -0.3961
  448PNCE   C2A 4005  11.382   3.725   7.945  0.0960  0.2263  0.2632
  448PNCE   C3A 4006  11.803   3.677   8.084 -0.3132  0.2948  0.0922
  448PNCE   C1B 4007  11.407   4.334   7.578 -0.0438  0.0743 -0.1376
  448PNCE   C2B 4008  11.384   3.936   7.477 -0.1592 -0.2914 -0.1281
  448PNCE   C3B 4009  11.327   3.771   7.024  0.2808  0.0456 -0.2292
  448PNCE   D4B 4010  11.022   3.664   6.757 -0.1560 -0.0612 -0.1420
  448PNCE   C5B 4011  10.615   3.405   6.837 -0.1221 -0.0001  0.1153
  448PNCE   C6B 4012  10.322   3.298   7.129 -0.0974 -0.0353 -0.0986
  449CHOL   ROH 4013  12.221  10.345   4.912  0.0455 -0.1100 -0.1238
  449CHOL    R1 4014  12.148  10.446   5.166  0.0589 -0.0053 -0.1618
  449CHOL    R2 4015  11.904  10.390   5.284  0.0920 -0.0062 -0.1016
  449CHOL    R3 4016  12.060  10.307   5.490  0.1391  0.1311 -0.0798
  449CHOL    R4 4017  11.790  10.325   5.603  0.0722 -0.2489 -0.1556
  449CHOL    R5 4018  11.970  10.420   5.682 -0.0680 -0.0374 -0.0718
  449CHOL    C1 4019  11.870  10.209   5.983  0.1048 -0.2613 -0.1666
  449CHOL    C2 4020  11.663  10.398   6.209  0.5067  0.0614 -0.0398
  450PNCE   AM1 4021   9.358   1.770   9.315 -0.1203  0.2854 -0.5510
  450PNCE   AM2 4022   9.185   2.030   9.165  0.2435 -0.0054 -0.1022
  450PNCE   T1A 4023   9.834   1.542   9.229  0.0253 -0.0413 -0.2449
  450PNCE   C2A 4024  10.240   1.563   8.969 -0.0218  0.1354  0.0430
  450PNCE   C3A 4025  10.746   1.551   8.920 -0.2272  0.1626 -0.0983
  450PNCE   C1B 4026   9.159   1.903   8.826  0.2018  0.2689 -0.3582
  450PNCE   C2B 4027   9.361   2.001   8.436  0.1065  0.0238 -0.0945
  450PNCE   C3B 4028   9.087   2.072   8.019 -0.1942  0.1748  0.0448
  450PNCE   D4B 4029   8.831   2.343   7.801  0.1786  0.0937  0.0930
  450PNCE   C5B 4030   8.780   2.499   7.452  0.2016  0.0227  0.1502
  450PNCE   C6B 4031   8.821   2.298   7.034 -0.1284 -0.0836  0.1953
  451PNCE   AM1 4032   0.943   6.000   8.144 -0.3407 -0.2508 -0.1550
  451PNCE   AM2 4033   1.028   6.323   8.368  0.0734  0.0556 -0.0062
  451PNCE   T1A 4034   0.768   6.118   7.785  0.0004 -0.0595 -0.3082
  451PNCE   C2A 4035   0.692   6.179   7.426 -0.2332 -0.1507  0.2405
  451PNCE   C3A 4036   0.898   6.462   7.167  0.0085 -0.2763  0.1044
  451PNCE   C1B 4037   1.188   6.399   7.917 -0.1879 -0.1375  0.0310
  451PNCE   C2B 4038   1.353   6.273   7.476  0.7505  0.0254 -0.1801
  451PNCE   C3B 4039   1.368   6.281   7.065  0.1212 -0.3037 -0.0339
  451PNCE   D4B 4040   1.274   6.490   6.855 -0.1888  0.2329  0.2515
  451PNCE   C5B 4041   1.526   6.500   6.569  0.0312 -0.4331  0.1465
  451PNCE   C6B 4042   1.757   6.219   6.279 -0.2064  0.2292 -0.0837
  452PNCE   AM1 4043   3.528  10.110   8.892  0.3222 -0.1769  0.1689
  452PNCE   AM2 4044   3.530  10.373   8.969  0.0241  0.2184  0.2798
  452PNCE   T1A 4045   3.565  10.072   8.389 -0.1441  0.0530  0.1988
  452PNCE   C2A 4046   3.301   9.852   8.079  0.2056  0.1130  0.1857
  452PNCE   C3A 4047   3.131   9.499   7.864 -0.1128 -0.3572  0.0425
  452PNCE   C1B 4048   3.317  10.495   8.523 -0.1915  0.1479  0.1480
  452PNCE   C2B 4049   3.425  10.407   8.024  0.0575  0.1333  0.3073
  452PNCE   C3B 4050   3.430  10.286   7.639 -0.0351  0.1505  0.1011
  452PNCE   D4B 4051   3.184  10.283   7.327  0.1514  0.4089 -0.1456
  452PNCE   C5B 4052   3.010   9.943   7.071 -0.0590 -0.0334  0.0766
  452PNCE   C6B 4053   3.120   9.558   6.856 -0.0085 -0.1829  0.0980
  453PNCE   AM1 4054  15.346   6.259   3.698  0.0003  0.1237 -0.1478
  453PNCE   AM2 4055  15.547   6.520   3.834  0.1649  0.0796  0.3175
  453PNCE   T1A 4056  14.960   6.435   3.892 -0.0904  0.1396  0.0421
  453PNCE   C2A 4057  14.694   6.396   4.256 -0.0128  0.0897  0.1152
  453PNCE   C3A 4058  14.603   5.988   4.556 -0.0342  0.2088  0.1083
  453PNCE   C1B 4059  15.388   6.347   4.170 -0.0776 -0.0308  0.1903
  453PNCE   C2B 4060  15.160   6.400   4.465  0.1255  0.0374  0.1178
  453PNCE   C3B 4061  14.919   6.305   4.832  0.0527 -0.0160 -0.1903
  453PNCE   D4B 4062  14.546   6.162   5.146 -0.0429 -0.1442 -0.0578
  453PNCE   C5B 4063  14.278   5.998   4.954  0.0246 -0.0344  0.1128
  453PNCE   C6B 4064  14.116   5.785   4.573  0.2016  0.1275 -0.0216
  454CHOL   ROH 4065   3.390   4.574   6.710  0.0290 -0.0336 -0.1959
  454CHOL    R1 4066   3.584   4.570   6.916 -0.0653  0.1425 -0.1002
  454CHOL    R2 4067   3.551   4.706   7.154 -0.3918 -0.0351 -0.0348
  454CHOL    R3 4068   3.598   4.461   7.263 -0.0831 -0.0315 -0.1538
  454CHOL    R4 4069   3.587   4.644   7.492 -0.4865 -0.1810 -0.0510
  454CHOL    R5 4070   3.749   4.505   7.444 -0.2487  0.0889 -0.0455
  454CHOL    C1 4071   3.654   4.378   7.791 -0.2520 -0.2627 -0.1720
  454CHOL    C2 4072   3.710   4.274   8.145 -0.3951  0.0566  0.0481
  455PNCE   AM1 4073  13.802  10.223   8.637 -0.2604 -0.2653 -0.0960
  455PNCE   AM2 4074  13.730  10.547   8.864  0.0598 -0.0570 -0.1046
  455PNCE   T1A 4075  13.763  10.292   8.280  0.0558 -0.1845 -0.0287
  455PNCE   C2A 4076  14.006  10.154   7.919  0.0500 -0.5014  0.1069
  455PNCE   C3A 4077  14.297   9.849   7.758 -0.1431 -0.1442  0.1343
  455PNCE   C1B 4078  13.991  10.884   8.756  0.2883 -0.0104 -0.0633
  455PNCE   C2B 4079  14.085  11.144   8.443  0.3944  0.0875  0.2428
  455PNCE   C3B 4080  14.150  11.463   8.245  0.1318  0.2606  0.0259
  455PNCE   D4B 4081  14.408  11.655   7.992 -0.3978 -0.1884  0.0312
  455PNCE   C5B 4082  14.554  12.055   8.198  0.1350 -0.0927 -0.0589
  455PNCE   C6B 4083  14.578  12.405   8.555 -0.0713  0.0222 -0.0975
  456PNCE   AM1 4084  14.085   1.068   8.885  0.0250  0.2211  0.1899
  456PNCE   AM2 4085  13.827   1.253   8.803 -0.0081 -0.1459  0.0095
  456PNCE   T1A 4086  14.123   0.909   8.481 -0.0110  0.2117 -0.2342
  456PNCE   C2A 4087  14.250   0.729   8.211 -0.1770  0.1217 -0.0433
  456PNCE   C3A 4088  14.355   0.795   7.842  0.2557  0.2775 -0.0090
  456PNCE   C1B 4089  13.666   1.241   8.415  0.2862 -0.0282  0.3712
  456PNCE   C2B 4090  13.776   1.305   7.944  0.2972  0.1506  0.1629
  456PNCE   C3B 4091  13.991   1.463   7.529 -0.1182  0.2900 -0.2019
  456PNCE   D4B 4092  14.190   1.505   7.245  0.2769 -0.1348  0.1833
  456PNCE   C5B 4093  13.993   1.398   6.893 -0.2041 -0.1328 -0.2497
  456PNCE   C6B 4094  13.768   1.130   6.693  0.0895 -0.1183 -0.3500
  457PNCE   AM1 4095   9.776   2.519   9.547  0.0813 -0.1946 -0.1030
  457PNCE   AM2 4096  10.079   2.608   9.509  0.3646  0.0758 -0.0907
  457PNCE   T1A 4097   9.782   2.138   9.317 -0.2469  0.0035  0.1976
  457PNCE   C2A 4098   9.973   2.037   8.897  0.5297  0.1795 -0.5098
  457PNCE   C3A 4099   9.812   1.668   8.660  0.0064  0.1991 -0.0394
  457PNCE   C1B 4100  10.024   2.517   9.057 -0.1861  0.0060  0.4315
  457PNCE   C2B 4101  10.109   2.745   8.811 -0.1689  0.0844  0.1862
  457PNCE   C3B 4102  10.080   2.822   8.370  0.0035  0.0250  0.2813
  457PNCE   D4B 4103  10.102   2.841   7.950  0.1283 -0.0199 -0.0354
  457PNCE   C5B 4104   9.972   3.294   7.647 -0.2417 -0.3546 -0.1660
  457PNCE   C6B 4105   9.732   3.565   7.832 -0.1922 -0.0365  0.0645
  458PNCE   AM1 4106   2.225   0.642   4.373  0.0369  0.2233 -0.0838
  458PNCE   AM2 4107   2.296   0.309   4.383  0.0616  0.0602  0.0127
  458PNCE   T1A 4108   2.036   0.647   4.727 -0.2570  0.0884 -0.1187
  458PNCE   C2A 4109   1.820   0.876   5.025  0.0101 -0.1228  0.1430
  458PNCE   C3A 4110   1.851   0.919   5.470 -0.0885  0.0067 -0.2156
  458PNCE   C1B 4111   2.433   0.396   4.812 -0.0022  0.2730 -0.3095
  458PNCE   C2B 4112   2.216   0.455   5.235 -0.0957  0.2229 -0.0301
  458PNCE   C3B 4113   2.230   0.239   5.608 -0.2535 -0.2349  0.3317
  458PNCE   D4B 4114   1.993   0.102   5.990 -0.2710  0.2146  0.1466
  458PNCE   C5B 4115   1.911   0.210   6.408  0.0077  0.0639  0.2981
  458PNCE   C6B 4116   1.974   0.327   6.868 -0.1702  0.1281 -0.2805
  459XCA    COO 4117   1.351  11.520   4.492  0.0034 -0.0135  0.0110
  459XCA     C1 4118   1.676  11.738   4.527 -0.0534 -0.0555 -0.0743
  459XCA     C2 4119   1.924  12.036   4.744 -0.4469  0.3908  0.0773
  459XCA     C3 4120   2.053  12.242   5.085  0.0236  0.0311  0.0734
  459XCA     C4 4121   2.087  12.282   5.530  0.3303 -0.0426  0.3456
  459XCA     C5 4122   2.018  12.267   6.006  0.2061 -0.2092 -0.0138
  459XCA     C6 4123   1.976  12.128   6.514 -0.4267  0.2795  0.0665
  460CHOL   ROH 4124   6.391   5.110   7.763  0.1140  0.0122 -0.2777
  460CHOL    R1 4125   6.457   5.056   7.493 -0.0544 -0.0085 -0.3173
  460CHOL    R2 4126   6.566   4.815   7.412  0.1557  0.0770 -0.3239
  460CHOL    R3 4127   6.356   4.815   7.239 -0.0032 -0.2191 -0.1375
  460CHOL    R4 4128   6.571   4.679   7.094  0.0216  0.0223 -0.3023
  460CHOL    R5 4129   6.455   4.851   7.025 -0.2506 -0.1403 -0.2348
  460CHOL    C1 4130   6.376   4.601   6.747 -0.2057 -0.2875 -0.1147
  460CHOL    C2 4131   6.165   4.560   6.467 -0.0293 -0.1841 -0.0876
  461CHOL   ROH 4132   2.536  15.009   5.142  0.1485 -0.0100 -0.1148
  461CHOL    R1 4133   2.539  15.008   5.425  0.2479 -0.0082 -0.1165
  461CHOL    R2 4134   2.756  15.098   5.572  0.2063  0.2111 -0.1949
  461CHOL    R3 4135   2.568  15.256   5.690  0.0867  0.0214 -0.1235
  461CHOL    R4 4136   2.778  15.225   5.892  0.2822  0.3544 -0.2552
  461CHOL    R5 4137   2.565  15.185   5.918  0.3423  0.0941 -0.0902
  461CHOL    C1 4138   2.615  15.448   6.190  0.2141  0.2598 -0.2234
  461CHOL    C2 4139   2.727  15.753   6.366  0.1149 -0.1138  0.1698
  462CHOL   ROH 4140   7.038  10.984   5.370  0.1756 -0.3837 -0.1345
  462CHOL    R1 4141   7.278  10.931   5.510  0.1749 -0.2910 -0.0982
  462CHOL    R2 4142   7.475  11.120   5.544  0.1085 -0.2260 -0.0974
  462CHOL    R3 4143   7.446  11.057   5.807  0.0997 -0.2030 -0.0919
  462CHOL    R4 4144   7.671  11.246   5.800 -0.0070 -0.0695 -0.0832
  462CHOL    R5 4145   7.670  11.047   5.891  0.0939 -0.0586 -0.0520
  462CHOL    C1 4146   7.757  11.259   6.196 -0.0827  0.0431 -0.0698
  462CHOL    C2 4147   8.192  11.312   6.205  0.1420 -0.0780  0.1186
  463CHOL   ROH 4148   1.695   7.659   5.648 -0.0210  0.0208  0.0642
  463CHOL    R1 4149   1.880   7.798   5.810  0.0795  0.0553 -0.0772
  463CHOL    R2 4150   2.031   7.673   6.004 -0.0745  0.1541  0.1124
  463CHOL    R3 4151   2.239   7.788   5.872  0.0607 -0.2074 -0.0011
  463CHOL    R4 4152   2.357   7.682   6.118 -0.1190  0.1452  0.2414
  463CHOL    R5 4153   2.372   7.887   6.044  0.0440  0.0119 -0.1125
  463CHOL    C1 4154   2.742   7.796   6.060 -0.0180 -0.1993  0.2099
  463CHOL    C2 4155   3.093   7.770   6.130  0.0043  0.2009  0.0233
  464CHOL   ROH 4156   1.382   7.128   5.419 -0.0841  0.0336  0.0147
  464CHOL    R1 4157   1.427   7.289   5.647 -0.1011 -0.0030  0.0434
  464CHOL    R2 4158   1.450   7.183   5.901 -0.0240 -0.0523  0.0139
  464CHOL    R3 4159   1.685   7.321   5.902 -0.0699  0.0276  0.0089
  464CHOL    R4 4160   1.596   7.323   6.182 -0.1276  0.1003 -0.0067
  464CHOL    R5 4161   1.650   7.497   6.061 -0.1625  0.0758 -0.0616
  464CHOL    C1 4162   1.901   7.533   6.346 -0.2309  0.2643 -0.0235
  464CHOL    C2 4163   1.980   7.826   6.471 -0.0061  0.0127  0.0923
  465XCA    COO 4164   1.166  11.257   9.119  0.0653 -0.0347 -0.0600
  465XCA     C1 4165   1.560  11.313   8.879 -0.0193 -0.5267 -0.0342
  465XCA     C2 4166   1.884  11.565   8.605 -0.2367 -0.1476  0.0473
  465XCA     C3 4167   1.917  11.758   8.193 -0.1462  0.2362  0.2873
  465XCA     C4 4168   1.846  11.676   7.721 -0.1849 -0.0621 -0.1965
  465XCA     C5 4169   1.694  11.411   7.268  0.0710  0.0028  0.0928
  465XCA     C6 4170   1.503  11.538   6.869  0.2246 -0.2650  0.0976
  466PNCE   AM1 4171  11.303   9.896   8.415 -0.1092  0.2741  0.2231
  466PNCE   AM2 4172  11.602   9.888   8.468  0.1560 -0.0492  0.0390
  466PNCE   T1A 4173  11.320   9.848   7.975 -0.2004  0.1634  0.1145
  466PNCE   C2A 4174  11.332  10.030   7.570 -0.2292 -0.0116 -0.0614
  466PNCE   C3A 4175  11.380  10.106   7.168  0.0127 -0.0097  0.1093
  466PNCE   C1B 4176  11.771   9.834   8.052  0.0369 -0.0915 -0.1456
  466PNCE   C2B 4177  11.826   9.943   7.587  0.2001 -0.0995 -0.3834
  466PNCE   C3B 4178  11.907  10.092   7.155  0.0255  0.0359  0.2643
  466PNCE   D4B 4179  12.119  10.158   6.743 -0.1806 -0.1864  0.0868
  466PNCE   C5B 4180  12.108  10.391   6.363  0.1824  0.0482  0.0366
  466PNCE   C6B 4181  12.323  10.545   6.035 -0.0153 -0.1713  0.0455
  467PNCE   AM1 4182   8.874  13.776   8.524  0.0002  0.2891  0.0333
  467PNCE   AM2 4183   8.977  14.114   8.717  0.0041  0.1060 -0.3404
  467PNCE   T1A 4184   8.641  13.998   8.101 -0.0076  0.1887 -0.0916
  467PNCE   C2A 4185   8.757  14.167   7.670 -0.0386  0.0800 -0.3306
  467PNCE   C3A 4186   8.892  14.205   7.233  0.2683 -0.1962 -0.2865
  467PNCE   C1B 4187   9.004  14.334   8.258  0.0876  0.1665 -0.0718
  467PNCE   C2B 4188   9.336  14.419   7.923  0.0770 -0.1061 -0.1288
  467PNCE   C3B 4189   9.491  14.344   7.497  0.2237 -0.2332  0.0057
  467PNCE   D4B 4190   9.652  14.653   7.193  0.0534  0.4021  0.0477
  467PNCE   C5B 4191   9.307  14.620   7.107 -0.1133  0.1100 -0.1880
  467PNCE   C6B 4192   9.021  14.560   6.767  0.0446 -0.0934  0.0688
  468XCA    COO 4193  11.685   3.032   9.173 -0.0943 -0.3374 -0.0399
  468XCA     C1 4194  11.570   3.025   8.786  0.3626 -0.2832 -0.0914
  468XCA     C2 4195  11.304   2.955   8.351  0.2531  0.4440  0.0195
  468XCA     C3 4196  10.997   2.809   8.018 -0.5363 -0.3089  0.1803
  468XCA     C4 4197  10.922   2.502   7.688 -0.2025 -0.3718  0.0409
  468XCA     C5 4198  10.644   2.153   7.683 -0.0270  0.0302 -0.1555
  468XCA     C6 4199  10.290   1.966   7.432  0.0776  0.3081  0.0219
  469PNCE   AM1 4200   5.161  14.765   9.005  0.1790 -0.1824  0.1717
  469PNCE   AM2 4201   5.453  15.080   8.844  0.0226 -0.2660 -0.0787
  469PNCE   T1A 4202   5.006  14.978   8.638  0.1326  0.0809  0.1109
  469PNCE   C2A 4203   4.854  14.919   8.243 -0.1253 -0.1555  0.3480
  469PNCE   C3A 4204   4.447  14.708   7.999 -0.1828  0.1475 -0.2860
  469PNCE   C1B 4205   5.517  15.479   8.489  0.0153 -0.1016  0.1406
  469PNCE   C2B 4206   5.620  15.651   8.085 -0.1144 -0.1936 -0.0942
  469PNCE   C3B 4207   5.705  15.806   7.680 -0.0950 -0.0391 -0.1804
  469PNCE   D4B 4208   5.562  15.989   7.409  0.3257 -0.0737 -0.2249
  469PNCE   C5B 4209   5.787  16.060   6.971  0.0875  0.1203 -0.0535
  469PNCE   C6B 4210   6.095  15.930   6.662 -0.0246  0.0769  0.0151
  470XCA    COO 4211   9.930  13.176   4.485  0.3442 -0.2552 -0.2159
  470XCA     C1 4212   9.878  13.198   4.919 -0.1150 -0.2117 -0.0659
  470XCA     C2 4213   9.780  13.080   5.206  0.3691  0.0531  0.1458
  470XCA     C3 4214   9.738  13.052   5.605 -0.1997  0.1030 -0.1841
  470XCA     C4 4215   9.578  13.284   5.910  0.0980  0.1929 -0.1600
  470XCA     C5 4216   9.758  13.587   6.242  0.0751  0.0012 -0.0485
  470XCA     C6 4217   9.648  13.784   6.700  0.0047  0.0542  0.1642
  471XCA    COO 4218   1.595  10.408   8.856 -0.0407  0.1114 -0.0953
  471XCA     C1 4219   1.420  10.240   8.506 -0.1946  0.2064  0.1283
  471XCA     C2 4220   1.215  10.252   8.075 -0.2459 -0.3086  0.1400
  471XCA     C3 4221   1.061  10.220   7.676  0.1338  0.3375  0.0913
  471XCA     C4 4222   1.106  10.083   7.262 -0.0013 -0.2153 -0.3780
  471XCA     C5 4223   0.625   9.836   7.188 -0.0887  0.0922  0.0232
  471XCA     C6 4224   0.392   9.436   7.112  0.1442 -0.0594 -0.1043
  472PNCE   AM1 4225  11.311  11.074   8.562  0.2031  0.2895  0.0981
  472PNCE   AM2 4226  11.270  11.425   8.712 -0.1822  0.2908 -0.1212
  472PNCE   T1A 4227  10.897  11.127   8.400  0.0481 -0.2177  0.1729
  472PNCE   C2A 4228  10.547  11.237   8.687  0.3198 -0.1686 -0.0862
  472PNCE   C3A 4229  10.329  11.547   8.503 -0.2171 -0.1522  0.0092
  472PNCE   C1B 4230  11.204  11.511   8.262  0.1207  0.1221 -0.1336
  472PNCE   C2B 4231  11.378  11.406   7.824  0.0670  0.0004  0.1939
  472PNCE   C3B 4232  11.289  11.475   7.410 -0.0849  0.2127 -0.3462
  472PNCE   D4B 4233  11.333  11.247   7.075 -0.2273  0.1428 -0.1635
  472PNCE   C5B 4234  11.066  10.825   6.991  0.1103  0.0212  0.2303
  472PNCE   C6B 4235  10.768  10.591   6.764 -0.1083 -0.1989  0.2117
  473PNCE   AM1 4236   0.821  12.339   4.515  0.0567 -0.0811  0.0477
  473PNCE   AM2 4237   0.693  12.051   4.649  0.4148 -0.0477  0.0554
  473PNCE   T1A 4238   0.993  12.478   4.878 -0.1903  0.1574  0.2412
  473PNCE   C2A 4239   1.211  12.574   5.242 -0.2409 -0.2570 -0.2551
  473PNCE   C3A 4240   1.649  12.478   5.370  0.0680 -0.0905 -0.2345
  473PNCE   C1B 4241   0.969  11.669   4.794 -0.1596  0.0242  0.3514
  473PNCE   C2B 4242   1.205  11.579   5.150 -0.0157 -0.1391 -0.3289
  473PNCE   C3B 4243   1.523  11.751   5.195 -0.4069 -0.0251  0.1864
  473PNCE   D4B 4244   1.878  11.863   5.395  0.2920  0.0253  0.2420
  473PNCE   C5B 4245   1.716  11.891   5.824 -0.1413 -0.1247  0.3337
  473PNCE   C6B 4246   1.508  12.106   6.229 -0.0734 -0.1851 -0.1988
  474PNCE   AM1 4247   4.356   9.931   8.353 -0.1756 -0.0398  0.3331
  474PNCE   AM2 4248   4.133   9.753   8.483  0.0226  0.2260 -0.2337
  474PNCE   T1A 4249   4.661   9.813   8.019 -0.0677  0.1413  0.1376
  474PNCE   C2A 4250   4.833   9.885   7.564  0.1808  0.1422 -0.1719
  474PNCE   C3A 4251   4.640   9.797   7.287  0.1313  0.3431 -0.2764
  474PNCE   C1B 4252   4.006   9.745   7.922  0.0587  0.1673  0.1720
  474PNCE   C2B 4253   3.646   9.878   7.748  0.1952  0.1554 -0.0685
  474PNCE   C3B 4254   3.277   9.807   7.478  0.0419 -0.3508  0.2694
  474PNCE   D4B 4255   3.004   9.519   7.367 -0.1214  0.3641 -0.1205
  474PNCE   C5B 4256   3.033   9.090   7.475  0.0742  0.2917 -0.0460
  474PNCE   C6B 4257   2.835   8.719   7.252  0.1454 -0.0308  0.1349
  475XCA    COO 4258   6.028   0.380   8.531 -0.3136 -0.3412 -0.0661
  475XCA     C1 4259   6.114   0.096   8.126 -0.1595  0.1045  0.0998
  475XCA     C2 4260   6.237  -0.211   7.794 -0.1087 -0.0526 -0.0108
  475XCA     C3 4261   6.377  -0.186   7.442 -0.2495 -0.0585 -0.3357
  475XCA     C4 4262   6.341   0.093   7.167 -0.0830 -0.0679  0.2011
  475XCA     C5 4263   6.078   0.528   7.208  0.0517 -0.0223  0.2356
  475XCA     C6 4264   5.972   0.909   7.418 -0.0187  0.2546  0.2435
  476PNCE   AM1 4265  12.494  14.087   8.327  0.1152 -0.2476 -0.0577
  476PNCE   AM2 4266  12.131  14.155   8.349  0.1971 -0.2257  0.0961
  476PNCE   T1A 4267  12.443  14.358   7.926  0.1240  0.0040  0.2006
  476PNCE   C2A 4268  12.472  14.397   7.505 -0.0489  0.1470  0.0915
  476PNCE   C3A 4269  12.178  14.270   7.200 -0.2028  0.1408 -0.0594
  476PNCE   C1B 4270  11.928  14.222   7.930 -0.1484  0.0983  0.1502
  476PNCE   C2B 4271  11.746  14.318   7.526 -0.0488  0.3211  0.0463
  476PNCE   C3B 4272  11.569  14.326   7.102 -0.1949 -0.2261  0.0165
  476PNCE   D4B 4273  11.295  14.548   6.804 -0.2119 -0.0998  0.2786
  476PNCE   C5B 4274  10.994  14.716   7.090  0.0318 -0.0269  0.2365
  476PNCE   C6B 4275  10.736  14.960   7.329 -0.1588 -0.0497  0.0344
  477CHOL   ROH 4276  13.664   8.533   5.942 -0.1317  0.0629  0.2027
  477CHOL    R1 4277  13.641   8.283   6.074 -0.1301 -0.0166  0.0570
  477CHOL    R2 4278  13.410   8.132   6.068 -0.1246 -0.0341 -0.0572
  477CHOL    R3 4279  13.579   7.938   5.977 -0.0960  0.0373 -0.1546
  477CHOL    R4 4280  13.369   7.793   6.121 -0.0392 -0.0677 -0.2047
  477CHOL    R5 4281  13.583   7.776   6.154 -0.0414 -0.0387 -0.2336
  477CHOL    C1 4282  13.502   7.414   6.067  0.0374 -0.0202 -0.3819
  477CHOL    C2 4283  13.781   7.037   6.065 -0.0734 -0.0929 -0.0779
  478CHOL   ROH 4284  14.398   4.846   7.570  0.1382 -0.0105  0.1861
  478CHOL    R1 4285  14.654   4.756   7.491  0.0626 -0.1610  0.1092
  478CHOL    R2 4286  14.718   4.488   7.471 -0.1752 -0.1999 -0.1545
  478CHOL    R3 4287  14.793   4.558   7.219 -0.1005 -0.0163 -0.0836
  478CHOL    R4 4288  14.962   4.328   7.286 -0.2721 -0.2094 -0.2756
  478CHOL    R5 4289  15.029   4.523   7.215 -0.1219 -0.1868 -0.0874
  478CHOL    C1 4290  15.174   4.301   6.941 -0.2583 -0.0425 -0.2795
  478CHOL    C2 4291  15.367   4.316   6.650 -0.2808  0.1045  0.1855
  479XCA    COO 4292   7.207   8.243   4.843 -0.0215 -0.1962  0.6776
  479XCA     C1 4293   7.150   8.441   5.259 -0.0550  0.2346 -0.2406
  479XCA     C2 4294   7.087   8.778   5.595 -0.2397 -0.2531  0.1188
  479XCA     C3 4295   6.882   9.097   5.956 -0.0691  0.0341  0.0231
  479XCA     C4 4296   6.798   9.517   6.023 -0.0333 -0.3357 -0.1257
  479XCA     C5 4297   7.008   9.819   5.739 -0.0057 -0.0150  0.0300
  479XCA     C6 4298   6.757  10.184   5.584  0.1069  0.0022  0.0587
  480CHOL   ROH 4299  11.080   2.654   5.198 -0.0863  0.0458 -0.0707
  480CHOL    R1 4300  11.215   2.584   5.437 -0.0908 -0.0460 -0.0942
  480CHOL    R2 4301  11.274   2.769   5.634  0.0621 -0.0856 -0.0998
  480CHOL    R3 4302  11.143   2.592   5.793 -0.0274 -0.0045 -0.0826
  480CHOL    R4 4303  11.339   2.719   5.970  0.0190 -0.0708 -0.0894
  480CHOL    R5 4304  11.313   2.505   5.939 -0.0763 -0.0623 -0.0612
  480CHOL    C1 4305  11.254   2.524   6.315 -0.0902  0.0140 -0.0672
  480CHOL    C2 4306  11.115   2.613   6.708  0.2326  0.1683 -0.2165
  481CHOL   ROH 4307  13.562  11.120   4.843 -0.1796  0.0244  0.1127
  481CHOL    R1 4308  13.515  11.117   5.122 -0.1308 -0.0778  0.1203
  481CHOL    R2 4309  13.346  10.934   5.243 -0.0318 -0.1851  0.0958
  481CHOL    R3 4310  13.564  10.883   5.396  0.0159 -0.1376  0.0444
  481CHOL    R4 4311  13.337  10.816   5.567  0.0641 -0.0595  0.1454
  481CHOL    R5 4312  13.500  10.951   5.617  0.0893 -0.0480  0.0402
  481CHOL    C1 4313  13.536  10.698   5.900  0.1648  0.0582  0.1259
  481CHOL    C2 4314  13.512  10.792   6.268  0.0873  0.0482 -0.0084
  482PNCE   AM1 4315   3.219  14.793   8.868  0.2112  0.0612 -0.1357
  482PNCE   AM2 4316   3.072  15.147   8.798  0.1446  0.1745 -0.1678
  482PNCE   T1A 4317   3.114  14.697   8.415  0.0957 -0.1746  0.0241
  482PNCE   C2A 4318   3.243  14.849   7.919  0.0195  0.0525 -0.1531
  482PNCE   C3A 4319   3.524  14.838   7.711 -0.1530 -0.0639  0.1763
  482PNCE   C1B 4320   3.079  15.558   8.707  0.0265 -0.0124  0.2930
  482PNCE   C2B 4321   3.122  15.710   8.266  0.2151  0.1709 -0.2269
  482PNCE   C3B 4322   3.170  15.750   7.883  0.2022  0.2365  0.2141
  482PNCE   D4B 4323   3.068  15.827   7.476 -0.1034  0.0616  0.1675
  482PNCE   C5B 4324   3.140  15.787   7.006  0.3284  0.2573  0.4060
  482PNCE   C6B 4325   3.343  15.737   6.582  0.1818  0.3292 -0.1371
  483PNCE   AM1 4326   5.756  12.097   8.835  0.1595 -0.0539  0.1830
  483PNCE   AM2 4327   6.049  12.030   8.707 -0.1196  0.0449 -0.0434
  483PNCE   T1A 4328   5.569  12.268   8.470  0.1997 -0.0749  0.1958
  483PNCE   C2A 4329   5.470  12.317   7.965  0.0704 -0.1121 -0.1035
  483PNCE   C3A 4330   5.310  12.478   7.633 -0.1881 -0.0542  0.3406
  483PNCE   C1B 4331   6.291  11.974   8.267 -0.4263  0.3267 -0.2093
  483PNCE   C2B 4332   6.097  12.182   7.967  0.0045  0.0232 -0.2533
  483PNCE   C3B 4333   5.877  12.302   7.614 -0.0963 -0.0974  0.3076
  483PNCE   D4B 4334   5.877  12.602   7.218  0.0304 -0.1688  0.1237
  483PNCE   C5B 4335   6.184  12.507   6.944 -0.2983  0.0820 -0.1099
  483PNCE   C6B 4336   6.648  12.576   6.916 -0.1011  0.1799  0.1879
  484PNCE   AM1 4337   8.519  11.522   9.131 -0.0913 -0.1454 -0.2630
  484PNCE   AM2 4338   8.373  11.663   8.880 -0.0433  0.1981  0.0699
  484PNCE   T1A 4339   8.662  11.139   8.960 -0.3725  0.0560  0.2929
  484PNCE   C2A 4340   8.605  10.639   8.880 -0.1563  0.0128  0.1470
  484PNCE   C3A 4341   8.440  10.644   8.474 -0.1561  0.3137  0.1668
  484PNCE   C1B 4342   8.619  11.555   8.510 -0.1246  0.1512 -0.0615
  484PNCE   C2B 4343   8.985  11.396   8.145  0.1750  0.0260  0.0717
  484PNCE   C3B 4344   9.470  11.423   8.218 -0.0051  0.0367 -0.0911
  484PNCE   D4B 4345   9.832  11.475   8.370  0.0453 -0.0375 -0.2998
  484PNCE   C5B 4346  10.099  11.801   8.070  0.0733 -0.0640 -0.0722
  484PNCE   C6B 4347  10.399  12.077   8.219 -0.1433 -0.0401 -0.0290
  485PNCE   AM1 4348  12.075   7.261   6.653 -0.1857  0.0062  0.0651
  485PNCE   AM2 4349  11.827   7.057   6.558 -0.1425 -0.0002  0.0470
  485PNCE   T1A 4350  12.155   7.617   6.339  0.0611  0.1190  0.1974
  485PNCE   C2A 4351  12.324   7.826   6.058 -0.0484  0.2039  0.0550
  485PNCE   C3A 4352  12.681   8.012   5.892 -0.1848  0.1904 -0.3616
  485PNCE   C1B 4353  12.045   7.130   6.145 -0.1591 -0.3434 -0.1454
  485PNCE   C2B 4354  12.358   7.302   5.869 -0.1021 -0.1131  0.1623
  485PNCE   C3B 4355  12.729   7.419   5.680 -0.2813 -0.3468  0.5055
  485PNCE   D4B 4356  13.161   7.473   5.726  0.4171  0.0574 -0.1479
  485PNCE   C5B 4357  13.215   7.902   5.647 -0.0424  0.1741 -0.4332
  485PNCE   C6B 4358  13.132   8.288   5.544  0.0507 -0.2507  0.2117
  486PNCE   AM1 4359  10.728   2.944   9.302  0.1575 -0.0718  0.1490
  486PNCE   AM2 4360  10.515   2.709   9.298  0.0809 -0.2668 -0.1278
  486PNCE   T1A 4361  10.885   3.040   8.866 -0.0848 -0.1425 -0.0262
  486PNCE   C2A 4362  10.860   2.797   8.487 -0.0134 -0.0296  0.1286
  486PNCE   C3A 4363  10.607   2.514   8.166 -0.1772  0.1782 -0.0659
  486PNCE   C1B 4364  10.458   2.259   9.308  0.0688 -0.0497 -0.1541
  486PNCE   C2B 4365  10.488   2.010   9.040  0.0703  0.0712  0.0482
  486PNCE   C3B 4366  10.726   1.952   8.646 -0.2747 -0.3147  0.0039
  486PNCE   D4B 4367  10.644   2.047   8.301  0.1593 -0.0175  0.4036
  486PNCE   C5B 4368  10.929   1.923   8.004 -0.2937  0.1049 -0.2559
  486PNCE   C6B 4369  11.251   1.764   7.976  0.1824 -0.1926 -0.1124
  487PNCE   AM1 4370   7.100  12.989   8.712  0.2989  0.1732  0.0337
  487PNCE   AM2 4371   6.881  13.340   8.786  0.1108  0.2943 -0.1092
  487PNCE   T1A 4372   6.993  12.775   8.327 -0.2470  0.0380 -0.2290
  487PNCE   C2A 4373   6.952  12.763   7.981  0.0031  0.0452 -0.1098
  487PNCE   C3A 4374   6.864  12.765   7.585  0.0018  0.1323  0.0837
  487PNCE   C1B 4375   6.981  13.285   8.304  0.0921  0.2782  0.1035
  487PNCE   C2B 4376   6.965  13.222   7.864  0.1394  0.0979  0.3286
  487PNCE   C3B 4377   7.081  13.400   7.453 -0.4404  0.1163  0.3833
  487PNCE   D4B 4378   7.458  13.387   7.248 -0.1785  0.2195  0.0672
  487PNCE   C5B 4379   7.540  13.075   6.871  0.0368 -0.0969  0.1051
  487PNCE   C6B 4380   7.133  13.195   6.534 -0.1361 -0.0753  0.1108
  488PNCE   AM1 4381  11.236   9.409   8.304 -0.1403  0.3650  0.0227
  488PNCE   AM2 4382  10.861   9.499   8.355  0.0578 -0.1040  0.1033
  488PNCE   T1A 4383  11.288   9.180   7.930  0.2280 -0.2554  0.0439
  488PNCE   C2A 4384  11.210   9.144   7.538 -0.1886 -0.3375 -0.0388
  488PNCE   C3A 4385  11.143   9.333   7.042  0.0207  0.2348  0.0830
  488PNCE   C1B 4386  10.810   9.748   7.977  0.0037  0.0920  0.2410
  488PNCE   C2B 4387  10.970   9.655   7.520  0.0250  0.0161 -0.4379
  488PNCE   C3B 4388  10.965   9.840   7.095 -0.1022  0.0613  0.1571
  488PNCE   D4B 4389  10.693  10.012   6.836  0.2836  0.1444  0.0053
  488PNCE   C5B 4390  10.247  10.059   6.803 -0.1202 -0.0968  0.2936
  488PNCE   C6B 4391   9.907   9.820   6.581  0.0487  0.1963  0.0756
  489XCA    COO 4392   0.839   7.154   5.872  0.0268  0.4446 -0.1318
  489XCA     C1 4393   0.568   7.522   6.014  0.1760 -0.0366 -0.3683
  489XCA     C2 4394   0.547   7.765   6.413 -0.1909  0.3080 -0.1613
  489XCA     C3 4395   0.359   8.079   6.552 -0.1187  0.0518  0.2329
  489XCA     C4 4396  -0.014   8.181   6.761 -0.0315  0.1009  0.2047
  489XCA     C5 4397  -0.327   8.310   6.909  0.3118 -0.2084  0.1515
  489XCA     C6 4398  -0.763   8.241   6.859  0.4177  0.1446  0.1608
  490CHOL   ROH 4399   3.428  10.765   7.326 -0.0060 -0.0000  0.1652
  490CHOL    R1 4400   3.545  10.545   7.191 -0.0533 -0.0111  0.1422
  490CHOL    R2 4401   3.472  10.472   6.935 -0.0272  0.0683  0.1129
  490CHOL    R3 4402   3.739  10.494   6.888 -0.0096 -0.0126  0.1696
  490CHOL    R4 4403   3.645  10.293   6.696 -0.0363  0.0260  0.1376
  490CHOL    R5 4404   3.809  10.270   6.838 -0.0712 -0.0340  0.1716
  490CHOL    C1 4405   3.996  10.210   6.511 -0.0252 -0.0745  0.2052
  490CHOL    C2 4406   4.119   9.974   6.358 -0.0485 -0.0392 -0.2192
  491CHOL   ROH 4407   5.095  11.484   9.128  0.2347  0.1559 -0.3402
  491CHOL    R1 4408   4.918  11.540   8.915 -0.0834  0.0973 -0.0978
  491CHOL    R2 4409   4.986  11.501   8.650 -0.3574  0.3250 -0.2063
  491CHOL    R3 4410   4.759  11.351   8.647 -0.2089  0.0882 -0.0182
  491CHOL    R4 4411   4.804  11.424   8.366 -0.3868 -0.0604 -0.0886
  491CHOL    R5 4412   4.621  11.456   8.481 -0.3789 -0.1664 -0.0437
  491CHOL    C1 4413   4.485  11.239   8.199 -0.2646 -0.5073  0.1566
  491CHOL    C2 4414   4.243  11.493   8.149  0.0028 -0.3512 -0.0132
  492CHOL   ROH 4415   4.872  14.266   4.754 -0.2128 -0.0478  0.0350
  492CHOL    R1 4416   4.772  14.386   4.990 -0.1964 -0.0244  0.0309
  492CHOL    R2 4417   4.597  14.255   5.161 -0.0487 -0.0752  0.1506
  492CHOL    R3 4418   4.785  14.317   5.348 -0.0104  0.1134  0.0512
  492CHOL    R4 4419   4.533  14.412   5.462 -0.0784 -0.3363  0.2817
  492CHOL    R5 4420   4.715  14.528   5.435 -0.2751 -0.0401  0.2144
  492CHOL    C1 4421   4.671  14.560   5.813 -0.0597 -0.3113  0.2646
  492CHOL    C2 4422   4.368  14.563   6.028  0.1037  0.1948 -0.0801
  493PNCE   AM1 4423   2.128   8.246   8.371 -0.1783  0.4566 -0.0658
  493PNCE   AM2 4424   1.786   8.153   8.408  0.1890 -0.4925  0.0221
  493PNCE   T1A 4425   2.357   8.293   7.970  0.0026  0.1247  0.0965
  493PNCE   C2A 4426   2.509   8.604   7.667  0.1134  0.0159 -0.2916
  493PNCE   C3A 4427   2.374   8.818   7.251  0.0736  0.0712  0.0267
  493PNCE   C1B 4428   1.814   8.229   7.920  0.0787 -0.0808 -0.4434
  493PNCE   C2B 4429   2.098   8.080   7.633 -0.1381 -0.2621 -0.2295
  493PNCE   C3B 4430   2.194   7.982   7.248  0.1798 -0.2063  0.0306
  493PNCE   D4B 4431   2.262   8.100   6.862  0.1444  0.0806  0.2681
  493PNCE   C5B 4432   2.407   8.505   6.778 -0.0260  0.4972  0.2460
  493PNCE   C6B 4433   2.343   8.966   6.714 -0.1655  0.0897 -0.0113
  494XCA    COO 4434  12.392  13.355   8.640  0.0371 -0.3410  0.1055
  494XCA     C1 4435  12.528  13.305   8.130 -0.4243  0.1163  0.2918
  494XCA     C2 4436  12.617  13.391   7.622 -0.1110  0.1284  0.0816
  494XCA     C3 4437  12.726  13.620   7.388  0.0235  0.0974 -0.3235
  494XCA     C4 4438  13.079  13.617   7.087 -0.2366 -0.1363  0.2195
  494XCA     C5 4439  13.168  13.716   6.692  0.0918 -0.0591 -0.2690
  494XCA     C6 4440  13.056  13.680   6.235  0.0979  0.2772 -0.0816
  495CHOL   ROH 4441  10.486   4.109   8.515  0.0812 -0.0909  0.1285
  495CHOL    R1 4442  10.383   3.948   8.307  0.1744 -0.1143  0.0999
  495CHOL    R2 4443  10.443   3.679   8.284  0.0591 -0.1541  0.2500
  495CHOL    R3 4444  10.172   3.652   8.282  0.0444 -0.0174  0.0322
  495CHOL    R4 4445  10.273   3.395   8.183  0.0120 -0.1782  0.3954
  495CHOL    R5 4446  10.127   3.523   8.085  0.1632 -0.2038  0.1228
  495CHOL    C1 4447   9.921   3.204   8.123 -0.0292 -0.0638  0.2755
  495CHOL    C2 4448   9.580   2.937   8.257 -0.0560  0.1098 -0.1096
  496XCA    COO 4449  15.602   8.892   4.999 -0.1025 -0.2072  0.1946
  496XCA     C1 4450  15.926   8.720   5.156 -0.1645  0.2748  0.3427
  496XCA     C2 4451  16.026   8.581   5.611 -0.4088  0.1696  0.3139
  496XCA     C3 4452  15.909   8.372   6.065 -0.3925 -0.0817 -0.1019
  496XCA     C4 4453  15.640   8.241   6.344  0.1185  0.0884  0.1165
  496XCA     C5 4454  15.396   8.001   6.500  0.0109  0.3850  0.0155
  496XCA     C6 4455  15.216   7.594   6.520 -0.0312  0.1751 -0.2191
  497PNCE   AM1 4456  11.656  13.046   8.744  0.1182  0.1991 -0.1677
  497PNCE   AM2 4457  11.391  12.765   8.713 -0.1669  0.1175 -0.4851
  497PNCE   T1A 4458  11.579  13.187   8.337 -0.1836  0.2056 -0.2532
  497PNCE   C2A 4459  11.771  13.540   7.996  0.2337 -0.1168 -0.1620
  497PNCE   C3A 4460  11.682  13.559   7.492  0.1154 -0.0804 -0.4959
  497PNCE   C1B 4461  11.265  12.720   8.377  0.0402  0.1507 -0.1217
  497PNCE   C2B 4462  11.380  12.847   8.022  0.0700 -0.0941 -0.0483
  497PNCE   C3B 4463  11.569  12.930   7.630  0.1027  0.1620 -0.1937
  497PNCE   D4B 4464  11.852  12.962   7.275 -0.0390 -0.2141 -0.0668
  497PNCE   C5B 4465  11.691  13.240   6.978  0.0063  0.0251 -0.0157
  497PNCE   C6B 4466  11.401  13.464   6.885 -0.0336 -0.0531 -0.0171
  498CHOL   ROH 4467   4.430  14.533   4.798 -0.1479  0.2000 -0.0897
  498CHOL    R1 4468   4.439  14.617   5.069 -0.1644 -0.0355 -0.0142
  498CHOL    R2 4469   4.365  14.871   5.149  0.0090 -0.0428  0.1787
  498CHOL    R3 4470   4.200  14.735   5.316 -0.1485 -0.0594  0.0126
  498CHOL    R4 4471   4.285  14.967   5.471 -0.1518 -0.1649  0.1768
  498CHOL    R5 4472   4.300  14.759   5.532 -0.2711 -0.2006  0.0876
  498CHOL    C1 4473   4.084  14.895   5.816 -0.3933 -0.2516  0.0198
  498CHOL    C2 4474   3.807  14.767   6.152  0.0619  0.1847 -0.3122
  499PNCE   AM1 4475   1.359   0.498   9.055 -0.0696  0.0030 -0.1664
  499PNCE   AM2 4476   1.743   0.416   9.003 -0.4809 -0.1576  0.1310
  499PNCE   T1A 4477   1.326   0.293   8.671  0.3316  0.1139  0.2353
  499PNCE   C2A 4478   1.726   0.125   8.519 -0.6262 -0.0323  0.1680
  499PNCE   C3A 4479   1.962  -0.301   8.440 -0.1859  0.4681  0.3026
  499PNCE   C1B 4480   1.646   0.615   8.547 -0.2631  0.3055  0.2075
  499PNCE   C2B 4481   1.614   0.419   8.096 -0.1967  0.1014  0.0917
  499PNCE   C3B 4482   1.901   0.409   7.727  0.2995  0.2050 -0.1407
  499PNCE   D4B 4483   1.999   0.551   7.322 -0.0551  0.0365  0.0901
  499PNCE   C5B 4484   2.365   0.603   7.040 -0.2457 -0.1529  0.1005
  499PNCE   C6B 4485   2.783   0.766   7.022  0.1602 -0.3023  0.0887
  500PNCE   AM1 4486   2.791   4.478   4.994 -0.1421 -0.4809  0.0560
  500PNCE   AM2 4487   3.044   4.323   4.992  0.1169 -0.1496 -0.0838
  500PNCE   T1A 4488   2.673   4.739   5.292 -0.1084  0.4234 -0.2318
  500PNCE   C2A 4489   2.450   4.706   5.629 -0.2913  0.0144  0.1535
  500PNCE   C3A 4490   2.462   5.093   5.956 -0.2599 -0.2189  0.2264
  500PNCE   C1B 4491   2.993   4.349   5.446  0.0567 -0.5202 -0.0095
  500PNCE   C2B 4492   2.794   4.459   5.867 -0.0655  0.0094  0.0522
  500PNCE   C3B 4493   2.630   4.615   6.103 -0.1079  0.0840 -0.2444
  500PNCE   D4B 4494   2.367   4.634   6.544 -0.0768 -0.2890  0.1780
  500PNCE   C5B 4495   2.266   4.853   6.843 -0.1434 -0.1113 -0.0755
  500PNCE   C6B 4496   2.102   4.624   7.090 -0.0553  0.0648  0.0241
  501PNCE   AM1 4497  15.600   9.560   4.672 -0.2456 -0.2560 -0.3170
  501PNCE   AM2 4498  15.707   9.888   4.758  0.3319 -0.1492 -0.0059
  501PNCE   T1A 4499  15.536   9.483   5.104  0.0542  0.1918  0.1336
  501PNCE   C2A 4500  15.427   9.595   5.447  0.1301  0.0832 -0.0683
  501PNCE   C3A 4501  15.216   9.718   5.811  0.0267 -0.0026  0.0608
  501PNCE   C1B 4502  15.561   9.965   5.157 -0.2748 -0.2072  0.0567
  501PNCE   C2B 4503  15.749   9.915   5.581  0.3983 -0.1551 -0.2038
  501PNCE   C3B 4504  15.735   9.646   5.891 -0.0353 -0.2769  0.0044
  501PNCE   D4B 4505  15.505   9.401   6.218  0.0120  0.1474 -0.0805
  501PNCE   C5B 4506  15.458   9.551   6.584  0.2412 -0.1644 -0.0977
  501PNCE   C6B 4507  15.248   9.466   6.886 -0.0965  0.1759 -0.0760
  502PNCE   AM1 4508   8.066   7.780   8.325 -0.1586 -0.0495  0.1916
  502PNCE   AM2 4509   8.377   7.666   8.636 -0.1569 -0.1294  0.1746
  502PNCE   T1A 4510   7.805   7.736   7.983 -0.3737  0.0519  0.4482
  502PNCE   C2A 4511   7.608   7.724   7.585 -0.1905  0.2599  0.2308
  502PNCE   C3A 4512   7.325   8.133   7.288 -0.1474  0.1639  0.2618
  502PNCE   C1B 4513   8.843   7.467   8.446  0.0751 -0.4813 -0.2331
  502PNCE   C2B 4514   9.032   7.572   8.051 -0.2321 -0.0584 -0.2434
  502PNCE   C3B 4515   9.039   7.896   7.719 -0.0006 -0.0223  0.0957
  502PNCE   D4B 4516   8.679   8.081   7.582  0.1519 -0.1009  0.3265
  502PNCE   C5B 4517   8.605   8.021   7.144  0.1700  0.0621 -0.1047
  502PNCE   C6B 4518   8.342   8.070   6.810  0.4284 -0.0081  0.0612
  503CHOL   ROH 4519   9.535   1.178   6.226  0.0674 -0.3624 -0.1234
  503CHOL    R1 4520   9.663   1.280   6.457  0.0357 -0.2997 -0.1326
  503CHOL    R2 4521   9.538   1.291   6.703 -0.0402 -0.1276 -0.1727
  503CHOL    R3 4522   9.758   1.154   6.784 -0.1208 -0.1796 -0.0403
  503CHOL    R4 4523   9.653   1.275   7.029  0.0120  0.1979 -0.1714
  503CHOL    R5 4524   9.856   1.291   6.953  0.0070 -0.0372 -0.2311
  503CHOL    C1 4525   9.926   1.136   7.294 -0.0332  0.3386 -0.0465
  503CHOL    C2 4526  10.114   1.116   7.597 -0.1834  0.1472  0.1442
  504CHOL   ROH 4527  15.000   9.428   6.168  0.0455  0.1818  0.2359
  504CHOL    R1 4528  14.779   9.280   6.072  0.1561  0.0723  0.1476
  504CHOL    R2 4529  14.540   9.261   6.211  0.1399 -0.1133  0.0909
  504CHOL    R3 4530  14.435   9.352   5.978  0.1296 -0.1145  0.0946
  504CHOL    R4 4531  14.213   9.215   6.111  0.0924  0.0172  0.1831
  504CHOL    R5 4532  14.285   9.179   5.909  0.0300 -0.0633  0.1707
  504CHOL    C1 4533  13.923   9.274   5.833  0.0551  0.0919  0.2402
  504CHOL    C2 4534  13.685   9.015   5.739 -0.3555 -0.2353 -0.6225
  505CHOL   ROH 4535   6.673   5.667   7.200 -0.1936 -0.1434  0.1341
  505CHOL    R1 4536   6.577   5.764   6.952 -0.2236 -0.1365  0.1481
  505CHOL    R2 4537   6.316   5.729   6.869 -0.2489 -0.0827  0.2040
  505CHOL    R3 4538   6.324   5.999   6.840 -0.1943 -0.0862  0.1873
  505CHOL    R4 4539   6.074   5.917   6.709 -0.1932 -0.0479  0.1607
  505CHOL    R5 4540   6.233   6.038   6.621 -0.1591 -0.0835  0.1732
  505CHOL    C1 4541   5.941   6.280   6.588 -0.1094 -0.0307  0.1197
  505CHOL    C2 4542   5.706   6.502   6.320  0.0966 -0.0639  0.0534
  506CHOL   ROH 4543   2.588  13.378   7.816  0.1044 -0.3066 -0.0552
  506CHOL    R1 4544   2.721  13.399   7.566  0.1680 -0.2669 -0.0188
  506CHOL    R2 4545   2.711  13.627   7.411  0.0222 -0.3185 -0.0902
  506CHOL    R3 4546   2.982  13.608   7.423  0.0367 -0.0842  0.0059
  506CHOL    R4 4547   2.927  13.735   7.164  0.0040 -0.3311 -0.1110
  506CHOL    R5 4548   3.047  13.557   7.198  0.1447 -0.2062  0.0646
  506CHOL    C1 4549   3.308  13.781   7.031  0.0070 -0.1182 -0.0328
  506CHOL    C2 4550   3.239  13.516   6.648  0.0101 -0.0399  0.1437
  507CHOL   ROH 4551   3.156   2.195   9.080  0.0494 -0.0434 -0.1250
  507CHOL    R1 4552   3.002   2.086   8.869 -0.1199 -0.1294  0.0409
  507CHOL    R2 4553   2.726   2.087   8.870 -0.1171  0.2028  0.0947
  507CHOL    R3 4554   2.758   2.208   8.629 -0.0172 -0.1401 -0.0714
  507CHOL    R4 4555   2.487   2.097   8.621 -0.2382  0.3336  0.2135
  507CHOL    R5 4556   2.645   2.064   8.474 -0.3646 -0.1321  0.1607
  507CHOL    C1 4557   2.377   2.217   8.249 -0.2148  0.0878  0.1268
  507CHOL    C2 4558   2.307   2.308   7.782 -0.0933 -0.2944 -0.0852
  508PNCE   AM1 4559   4.197   2.329   8.904  0.0646  0.2771 -0.0388
  508PNCE   AM2 4560   4.429   2.125   9.082  0.1161  0.3948 -0.2500
  508PNCE   T1A 4561   3.923   2.203   8.578  0.0215  0.0571  0.0808
  508PNCE   C2A 4562   3.587   2.221   8.276  0.0810  0.0839 -0.0097
  508PNCE   C3A 4563   3.341   2.179   7.905 -0.0107 -0.0755 -0.1889
  508PNCE   C1B 4564   4.354   1.958   8.639 -0.0982  0.0175  0.0141
  508PNCE   C2B 4565   4.261   1.983   8.246 -0.3007 -0.1611  0.2325
  508PNCE   C3B 4566   4.439   1.686   7.892 -0.1219  0.0919  0.0888
  508PNCE   D4B 4567   4.176   1.408   7.598  0.1686 -0.1055 -0.1322
  508PNCE   C5B 4568   4.345   1.226   7.287  0.2393 -0.0336  0.1871
  508PNCE   C6B 4569   4.708   1.013   7.178 -0.1753 -0.1154 -0.0810
  509CHOL   ROH 4570   3.093   3.563   8.014  0.1072  0.0653 -0.1445
  509CHOL    R1 4571   3.025   3.318   7.890  0.0692  0.0147 -0.0240
  509CHOL    R2 4572   2.886   3.119   8.021 -0.0304  0.1341  0.0487
  509CHOL    R3 4573   2.720   3.139   7.807  0.0390  0.0597 -0.0139
  509CHOL    R4 4574   2.643   2.888   7.939 -0.0792  0.1591  0.1200
  509CHOL    R5 4575   2.697   2.914   7.729 -0.0078  0.0157  0.1164
  509CHOL    C1 4576   2.344   2.772   7.690 -0.0425  0.1038  0.1028
  509CHOL    C2 4577   1.979   2.858   7.626  0.0254  0.1034  0.1092
  510PNCE   AM1 4578  12.598  10.296   8.538 -0.1130 -0.0153 -0.0920
  510PNCE   AM2 4579  12.333  10.426   8.466 -0.0926 -0.1106 -0.0132
  510PNCE   T1A 4580  12.856  10.048   8.272  0.0572  0.3131  0.2464
  510PNCE   C2A 4581  12.675  10.036   7.904 -0.1633 -0.1085 -0.0471
  510PNCE   C3A 4582  12.532   9.903   7.541  0.1487  0.0797  0.3133
  510PNCE   C1B 4583  12.249  10.343   8.011 -0.2234 -0.0525  0.1722
  510PNCE   C2B 4584  12.231  10.223   7.646 -0.1181 -0.1254  0.0821
  510PNCE   C3B 4585  12.270  10.331   7.289 -0.2541 -0.1531  0.1374
  510PNCE   D4B 4586  12.219  10.656   6.850  0.1841  0.0774  0.2948
  510PNCE   C5B 4587  12.529  11.074   6.783 -0.2222  0.1777 -0.1107
  510PNCE   C6B 4588  12.486  11.453   6.853 -0.1016 -0.0886  0.0956
  511PNCE   AM1 4589   2.540   6.894   8.034 -0.3204 -0.1018 -0.2648
  511PNCE   AM2 4590   2.580   6.742   8.249 -0.1343 -0.0674 -0.0224
  511PNCE   T1A 4591   2.724   6.768   7.753  0.0374 -0.0802 -0.0242
  511PNCE   C2A 4592   3.047   6.743   7.441 -0.0047  0.2272  0.0372
  511PNCE   C3A 4593   3.369   6.667   7.240  0.0350 -0.0854 -0.3515
  511PNCE   C1B 4594   2.544   6.434   8.061  0.2567 -0.0184 -0.4256
  511PNCE   C2B 4595   2.752   6.246   7.658  0.2674  0.0577  0.0269
  511PNCE   C3B 4596   3.091   6.215   7.409  0.1737  0.0471 -0.1684
  511PNCE   D4B 4597   3.399   6.185   7.094 -0.0027 -0.1190 -0.4953
  511PNCE   C5B 4598   3.507   5.904   6.905  0.1329 -0.2438  0.2167
  511PNCE   C6B 4599   3.857   5.774   6.786  0.0697  0.3096  0.0932
  512CHOL   ROH 4600   0.355  13.687   4.669  0.0225 -0.2069 -0.0613
  512CHOL    R1 4601   0.362  13.444   4.813  0.1083 -0.1150  0.0928
  512CHOL    R2 4602   0.470  13.424   5.067 -0.0380  0.1188  0.1782
  512CHOL    R3 4603   0.227  13.318   5.127 -0.0016 -0.0188  0.0835
  512CHOL    R4 4604   0.396  13.245   5.354 -0.0504  0.0644  0.1409
  512CHOL    R5 4605   0.277  13.110   5.233  0.0708  0.0051  0.0917
  512CHOL    C1 4606   0.125  13.041   5.576 -0.0235 -0.0964  0.0302
  512CHOL    C2 4607  -0.215  12.954   5.738  0.0896 -0.2905 -0.1233
  513CHOL   ROH 4608  15.814   8.335   7.856 -0.0196 -0.1548 -0.1485
  513CHOL    R1 4609  15.629   8.512   7.736  0.0579 -0.0312 -0.0885
  513CHOL    R2 4610  15.689   8.658   7.509  0.0651 -0.1097 -0.1382
  513CHOL    R3 4611  15.463   8.541   7.413 -0.0694  0.0468 -0.0167
  513CHOL    R4 4612  15.541   8.735   7.207  0.1078 -0.1916 -0.1801
  513CHOL    R5 4613  15.346   8.720   7.304  0.1015  0.0856 -0.1410
  513CHOL    C1 4614  15.242   8.670   6.940  0.0064 -0.0925 -0.0903
  513CHOL    C2 4615  15.288   8.548   6.524 -0.0320  0.1318 -0.3776
  514PNCE   AM1 4616  14.983  10.005   8.736 -0.0296  0.2445 -0.0860
  514PNCE   AM2 4617  15.015   9.807   8.861  0.3703  0.1482  0.1526
  514PNCE   T1A 4618  14.752  10.263   8.499 -0.0387 -0.2015  0.1541
  514PNCE   C2A 4619  14.405  10.442   8.572  0.0393  0.1087 -0.0667
  514PNCE   C3A 4620  14.170  10.660   8.403 -0.0307  0.1184  0.0883
  514PNCE   C1B 4621  15.392   9.883   8.587  0.3800  0.0593  0.0284
  514PNCE   C2B 4622  15.644   9.866   8.169 -0.3322  0.1462  0.2737
  514PNCE   C3B 4623  15.797   9.937   7.805  0.0875 -0.1044  0.1304
  514PNCE   D4B 4624  15.992  10.040   7.471 -0.0464 -0.0554 -0.4733
  514PNCE   C5B 4625  16.038   9.922   7.116  0.2282 -0.0932  0.0244
  514PNCE   C6B 4626  15.865   9.587   6.864  0.1425  0.4697  0.1986
  515CHOL   ROH 4627   9.887   7.266   4.477 -0.1591 -0.0102  0.1224
  515CHOL    R1 4628   9.999   7.018   4.556 -0.1565 -0.0550 -0.0186
  515CHOL    R2 4629  10.022   6.943   4.821  0.0145 -0.1255 -0.0526
  515CHOL    R3 4630   9.888   6.723   4.736 -0.0937 -0.0757 -0.0129
  515CHOL    R4 4631   9.924   6.681   5.024  0.2570 -0.2344 -0.0723
  515CHOL    R5 4632   9.980   6.543   4.865  0.0631 -0.1494 -0.2207
  515CHOL    C1 4633   9.740   6.322   5.062  0.2964 -0.2511 -0.0464
  515CHOL    C2 4634  10.035   6.233   5.213  0.0359  0.1601  0.2051
  516CHOL   ROH 4635   5.652   0.787   6.947 -0.1339  0.0886  0.2832
  516CHOL    R1 4636   5.802   1.023   6.901 -0.0784  0.0257  0.1298
  516CHOL    R2 4637   5.697   1.276   6.942 -0.0324  0.0815 -0.0684
  516CHOL    R3 4638   5.916   1.306   7.100 -0.0481  0.1473 -0.0598
  516CHOL    R4 4639   5.831   1.580   7.037 -0.0939  0.1193 -0.1031
  516CHOL    R5 4640   6.030   1.496   7.007 -0.0781  0.1541 -0.0781
  516CHOL    C1 4641   6.115   1.785   7.240 -0.1445  0.2030 -0.1153
  516CHOL    C2 4642   5.886   2.074   7.249 -0.1392 -0.1587  0.0313
  517PNCE   AM1 4643  13.627   4.769   7.595 -0.2281  0.0081  0.3815
  517PNCE   AM2 4644  13.944   4.857   7.441 -0.0645 -0.1744 -0.2862
  517PNCE   T1A 4645  13.521   5.156   7.359  0.0285 -0.0327  0.1367
  517PNCE   C2A 4646  13.533   5.412   6.956 -0.2799 -0.2185  0.0270
  517PNCE   C3A 4647  13.877   5.458   6.531 -0.0493 -0.0178  0.1170
  517PNCE   C1B 4648  13.733   4.705   7.064  0.1654 -0.2830 -0.0272
  517PNCE   C2B 4649  13.571   4.455   6.737 -0.0080 -0.3861  0.3758
  517PNCE   C3B 4650  13.594   4.037   6.477 -0.2254  0.0036 -0.1794
  517PNCE   D4B 4651  13.437   3.664   6.277  0.3377 -0.3603  0.0683
  517PNCE   C5B 4652  13.384   3.257   6.370  0.0229  0.0015  0.3384
  517PNCE   C6B 4653  12.985   3.017   6.595 -0.0128 -0.1111 -0.1586
  518PNCE   AM1 4654   1.645   2.969   9.178 -0.4884  0.1714  0.0472
  518PNCE   AM2 4655   1.667   2.621   9.250  0.1368 -0.4128  0.2616
  518PNCE   T1A 4656   2.058   3.185   9.038 -0.2090  0.2342 -0.2780
  518PNCE   C2A 4657   2.402   3.101   8.801  0.0252 -0.0609 -0.0749
  518PNCE   C3A 4658   2.464   3.089   8.328  0.0214 -0.0463 -0.2349
  518PNCE   C1B 4659   2.113   2.659   8.995 -0.1769 -0.0756  0.3796
  518PNCE   C2B 4660   2.502   2.599   8.658 -0.0179 -0.1742 -0.0546
  518PNCE   C3B 4661   2.826   2.768   8.317 -0.0851 -0.0258  0.0736
  518PNCE   D4B 4662   3.162   2.726   8.085 -0.0440  0.1618 -0.0892
  518PNCE   C5B 4663   3.157   2.871   7.714  0.0432 -0.0091  0.0223
  518PNCE   C6B 4664   2.956   3.140   7.356 -0.0649  0.1871  0.2210
  519XCA    COO 4665   0.301   5.859   4.183  0.0593  0.1085 -0.0417
  519XCA     C1 4666   0.233   6.272   4.440  0.1261  0.2394 -0.0723
  519XCA     C2 4667   0.330   6.471   4.838 -0.0985 -0.3381 -0.1446
  519XCA     C3 4668   0.260   6.760   5.264 -0.0508  0.0006 -0.0540
  519XCA     C4 4669   0.523   7.038   5.521  0.1081 -0.1649  0.1962
  519XCA     C5 4670   0.391   7.486   5.556  0.0158 -0.2181 -0.0960
  519XCA     C6 4671   0.370   7.725   5.178  0.2411  0.3380  0.0003
  520XCA    COO 4672   0.426   2.186   4.707 -0.2236  0.1266  0.1582
  520XCA     C1 4673   0.776   2.162   5.107  0.3137  0.0121 -0.3369
  520XCA     C2 4674   1.005   2.277   5.537  0.3383 -0.3456 -0.0959
  520XCA     C3 4675   0.948   2.369   6.003 -0.2499 -0.0032  0.0526
  520XCA     C4 4676   0.865   2.697   6.358 -0.0025 -0.0516 -0.1182
  520XCA     C5 4677   1.246   2.926   6.536  0.3775  0.0542  0.0831
  520XCA     C6 4678   1.567   3.077   6.581 -0.1998 -0.0699  0.0316
  521XCA    COO 4679   6.988  13.786   8.317  0.0189  0.1784  0.2213
  521XCA     C1 4680   6.980  13.707   7.843 -0.1773  0.0057 -0.2245
  521XCA     C2 4681   6.896  13.865   7.374 -0.1758 -0.0339  0.1254
  521XCA     C3 4682   6.810  14.092   6.978 -0.1390 -0.2143 -0.0680
  521XCA     C4 4683   6.767  14.562   6.891  0.1034 -0.0200 -0.0793
  521XCA     C5 4684   6.485  14.769   6.885  0.1012  0.0713 -0.0104
  521XCA     C6 4685   6.147  14.982   6.583  0.0533 -0.1522 -0.2969
  522PNCE   AM1 4686   9.763  14.082   8.743  0.2399  0.2464  0.1175
  522PNCE   AM2 4687   9.474  14.178   8.529 -0.0907 -0.1265 -0.4321
  522PNCE   T1A 4688  10.048  14.218   8.373 -0.0348  0.0039  0.0315
  522PNCE   C2A 4689  10.251  14.572   8.078 -0.3238  0.0482  0.3196
  522PNCE   C3A 4690  10.136  15.025   8.049 -0.3031  0.0184 -0.1411
  522PNCE   C1B 4691   9.240  13.931   8.136  0.0690  0.0634  0.3102
  522PNCE   C2B 4692   9.245  13.953   7.645 -0.2145  0.0030  0.1087
  522PNCE   C3B 4693   9.110  13.748   7.274  0.0257  0.0062 -0.1346
  522PNCE   D4B 4694   9.131  13.758   6.794 -0.0134 -0.3705  0.0216
  522PNCE   C5B 4695   9.280  14.177   6.618  0.2828 -0.1976 -0.5219
  522PNCE   C6B 4696   9.210  14.496   6.316 -0.1085  0.3744 -0.0388
  523CHOL   ROH 4697  10.199  13.717   8.301 -0.1164 -0.2189  0.1181
  523CHOL    R1 4698  10.067  13.841   8.083 -0.0533 -0.1744  0.1052
  523CHOL    R2 4699  10.122  13.776   7.820 -0.0332 -0.1763  0.1109
  523CHOL    R3 4700   9.853  13.734   7.808 -0.0429 -0.1050  0.0697
  523CHOL    R4 4701   9.938  13.755   7.528  0.0006 -0.0822  0.0823
  523CHOL    R5 4702   9.780  13.870   7.625  0.0170 -0.0558  0.0807
  523CHOL    C1 4703   9.579  13.704   7.347  0.0112  0.0398  0.0270
  523CHOL    C2 4704   9.559  13.417   7.079 -0.2210 -0.0455  0.1953
  524XCA    COO 4705   5.689  14.419   5.536  0.2939 -0.1462 -0.3544
  524XCA     C1 4706   5.770  14.065   5.839  0.1999  0.3854 -0.0553
  524XCA     C2 4707   5.638  13.794   6.216  0.1693 -0.1329  0.3619
  524XCA     C3 4708   5.633  13.416   6.510  0.1293 -0.0908 -0.2618
  524XCA     C4 4709   5.429  13.162   6.771 -0.1131 -0.2589  0.1939
  524XCA     C5 4710   5.607  13.029   7.199  0.0099 -0.3027  0.1627
  524XCA     C6 4711   5.645  12.875   7.654 -0.2797 -0.0199 -0.2401
  525CHOL   ROH 4712   4.036  12.584   4.611 -0.0663 -0.0579 -0.2118
  525CHOL    R1 4713   4.115  12.425   4.832 -0.1188 -0.0993 -0.2227
  525CHOL    R2 4714   4.042  12.485   5.091 -0.0324 -0.0471 -0.2112
  525CHOL    R3 4715   3.949  12.230   5.090 -0.1868  0.0076 -0.1843
  525CHOL    R4 4716   3.914  12.320   5.366  0.0759 -0.0133 -0.1392
  525CHOL    R5 4717   4.018  12.140   5.301 -0.0793 -0.0667 -0.2490
  525CHOL    C1 4718   3.751  11.983   5.524 -0.0060  0.0578 -0.0721
  525CHOL    C2 4719   3.662  11.840   5.854  0.2628 -0.0901 -0.1604
  526PNCE   AM1 4720   5.482   1.886   8.998 -0.2145  0.0936 -0.1689
  526PNCE   AM2 4721   5.527   2.221   9.024  0.0403  0.0910 -0.1555
  526PNCE   T1A 4722   5.471   1.616   8.549  0.2033 -0.0485 -0.1349
  526PNCE   C2A 4723   5.390   1.368   8.184 -0.0837  0.1059  0.4142
  526PNCE   C3A 4724   5.475   1.136   7.873 -0.0347 -0.1343 -0.0057
  526PNCE   C1B 4725   5.501   2.230   8.501 -0.1131 -0.0846 -0.2708
  526PNCE   C2B 4726   5.517   1.936   8.141 -0.1425 -0.5273  0.0968
  526PNCE   C3B 4727   5.604   1.719   7.810  0.2181 -0.0489 -0.1683
  526PNCE   D4B 4728   5.508   1.748   7.360  0.0314 -0.1664  0.3661
  526PNCE   C5B 4729   5.221   2.078   7.212  0.0387  0.1129  0.1800
  526PNCE   C6B 4730   4.894   1.884   6.824 -0.0777 -0.1094 -0.2637
  527XCA    COO 4731   2.332  14.906   9.045  0.0674 -0.4435  0.0162
  527XCA     C1 4732   2.606  15.066   8.624  0.0228 -0.3045  0.2038
  527XCA     C2 4733   2.871  15.193   8.308 -0.4435 -0.1051  0.0698
  527XCA     C3 4734   2.886  15.314   7.938 -0.1499 -0.1951  0.1982
  527XCA     C4 4735   2.597  15.449   7.487  0.1220  0.0916 -0.0147
  527XCA     C5 4736   2.604  15.323   7.023 -0.3798  0.1443  0.6463
  527XCA     C6 4737   2.849  15.340   6.667 -0.1127 -0.2435 -0.0864
  528CHOL   ROH 4738  12.672   5.884   4.240 -0.1185  0.1609 -0.0444
  528CHOL    R1 4739  12.457   5.859   4.422 -0.3173  0.1577 -0.2740
  528CHOL    R2 4740  12.451   5.992   4.664 -0.2812 -0.3146  0.0026
  528CHOL    R3 4741  12.211   6.082   4.572 -0.0565  0.2902 -0.0376
  528CHOL    R4 4742  12.187   6.090   4.865 -0.4081 -0.6063 -0.0181
  528CHOL    R5 4743  12.051   5.991   4.726 -0.3740 -0.0019 -0.5197
  528CHOL    C1 4744  11.809   6.231   4.896 -0.2713 -0.2084 -0.0680
  528CHOL    C2 4745  11.807   6.013   5.184  0.0896  0.1922 -0.2864
  529XCA    COO 4746   6.998   2.120   5.479 -0.4566  0.1875 -0.0279
  529XCA     C1 4747   6.967   2.077   5.946  0.0431 -0.3383  0.2218
  529XCA     C2 4748   6.855   2.049   6.335  0.3118 -0.1286  0.5053
  529XCA     C3 4749   7.013   2.158   6.715  0.1527  0.0234  0.3638
  529XCA     C4 4750   6.983   2.060   7.069  0.0978  0.0275 -0.0292
  529XCA     C5 4751   6.869   2.126   7.522 -0.0056 -0.1150 -0.1073
  529XCA     C6 4752   6.828   2.205   7.916  0.3811 -0.1900  0.3916
  530PNCE   AM1 4753  10.122   9.130   8.086  0.0050  0.0840  0.2911
  530PNCE   AM2 4754  10.202   8.966   7.850 -0.1060  0.0842 -0.2812
  530PNCE   T1A 4755   9.894   9.470   7.972  0.0758 -0.1608 -0.0776
  530PNCE   C2A 4756   9.550   9.742   7.880  0.1888 -0.0559  0.3039
  530PNCE   C3A 4757   9.167  10.008   7.898 -0.1834 -0.1653  0.2223
  530PNCE   C1B 4758  10.195   9.255   7.437 -0.2377  0.1981  0.0466
  530PNCE   C2B 4759   9.991   9.462   7.076 -0.0384  0.1247  0.1761
  530PNCE   C3B 4760   9.634   9.726   7.029  0.1820  0.1038  0.0351
  530PNCE   D4B 4761   9.152   9.702   6.979  0.0238  0.0208 -0.0847
  530PNCE   C5B 4762   8.949   9.800   6.560  0.2037  0.0969  0.0041
  530PNCE   C6B 4763   9.007  10.071   6.168 -0.0080  0.1471  0.3871
  531CHOL   ROH 4764   4.041  15.512   4.713  0.0627  0.2602  0.1821
  531CHOL    R1 4765   3.841  15.664   4.844  0.0452  0.2603  0.1535
  531CHOL    R2 4766   3.690  15.563   5.052 -0.0983  0.2038  0.0200
  531CHOL    R3 4767   3.779  15.784   5.181 -0.0937  0.1088  0.1839
  531CHOL    R4 4768   3.545  15.699   5.335 -0.1729  0.0721  0.0470
  531CHOL    R5 4769   3.580  15.897   5.252 -0.0950  0.1146  0.1750
  531CHOL    C1 4770   3.545  15.986   5.621 -0.2119 -0.0938  0.2167
  531CHOL    C2 4771   3.455  16.056   5.971  0.2308  0.1252 -0.0170
  532PNCE   AM1 4772   7.056   3.808   8.884 -0.4490 -0.1113  0.1616
  532PNCE   AM2 4773   6.844   3.650   8.640 -0.0704  0.1241 -0.5815
  532PNCE   T1A 4774   7.283   3.923   8.507  0.1977 -0.0028 -0.0062
  532PNCE   C2A 4775   7.463   3.893   8.026  0.0787  0.0778 -0.1226
  532PNCE   C3A 4776   7.371   3.768   7.545  0.1936 -0.1009 -0.0329
  532PNCE   C1B 4777   6.797   3.283   8.356 -0.1372  0.1650 -0.0430
  532PNCE   C2B 4778   6.711   3.321   7.988 -0.0666 -0.1969 -0.0977
  532PNCE   C3B 4779   6.484   3.217   7.620 -0.0348 -0.1446  0.0546
  532PNCE   D4B 4780   6.253   2.891   7.362  0.1360 -0.1332 -0.2619
  532PNCE   C5B 4781   6.028   2.515   7.611  0.5056  0.0738  0.0387
  532PNCE   C6B 4782   5.884   2.202   7.773 -0.0400  0.2266 -0.0886
  533PNCE   AM1 4783   7.737   2.583   8.953  0.2542 -0.3318  0.2129
  533PNCE   AM2 4784   7.532   2.777   9.127 -0.0206 -0.2500 -0.1515
  533PNCE   T1A 4785   7.985   2.569   8.611 -0.1115 -0.1485 -0.1582
  533PNCE   C2A 4786   8.418   2.504   8.494  0.1099 -0.1782  0.1245
  533PNCE   C3A 4787   8.747   2.638   8.262  0.3071 -0.1661 -0.1987
  533PNCE   C1B 4788   7.408   2.863   8.703  0.2664 -0.0130  0.1549
  533PNCE   C2B 4789   7.596   2.931   8.302 -0.1657 -0.0683 -0.0373
  533PNCE   C3B 4790   7.929   2.903   7.977  0.0878  0.1759 -0.2454
  533PNCE   D4B 4791   8.024   2.831   7.548  0.1445  0.0946  0.1004
  533PNCE   C5B 4792   8.120   3.084   7.146 -0.1538  0.3737 -0.2032
  533PNCE   C6B 4793   8.161   3.489   6.972 -0.1230 -0.0092 -0.0816
  534PNCE   AM1 4794   2.621   9.834   8.576 -0.1606  0.1160  0.1408
  534PNCE   AM2 4795   2.307   9.708   8.575  0.4005  0.2063  0.2653
  534PNCE   T1A 4796   2.778   9.747   8.147 -0.0522 -0.0117 -0.0602
  534PNCE   C2A 4797   2.606   9.663   7.642 -0.0414  0.2779 -0.0859
  534PNCE   C3A 4798   2.591   9.723   7.191  0.3330 -0.1623 -0.3042
  534PNCE   C1B 4799   2.263   9.659   8.229 -0.0839 -0.2060  0.2538
  534PNCE   C2B 4800   2.130   9.661   7.822 -0.2812 -0.3918 -0.2544
  534PNCE   C3B 4801   2.168   9.631   7.429 -0.1167 -0.1232  0.3215
  534PNCE   D4B 4802   2.280   9.431   6.926 -0.1267  0.0019 -0.0039
  534PNCE   C5B 4803   2.564   9.618   6.682  0.1619  0.0899  0.0027
  534PNCE   C6B 4804   2.583   9.796   6.273 -0.3889  0.0138  0.1588
  535PNCE   AM1 4805   0.510   1.663   8.511 -0.2389  0.0308  0.0849
  535PNCE   AM2 4806   0.795   1.593   8.395  0.1469  0.0880  0.0910
  535PNCE   T1A 4807   0.190   1.796   8.204  0.1750  0.2139  0.1912
  535PNCE   C2A 4808  -0.207   1.752   7.947 -0.3109 -0.0858 -0.1875
  535PNCE   C3A 4809  -0.376   1.549   7.568  0.1126  0.0053 -0.3170
  535PNCE   C1B 4810   0.887   1.826   8.006  0.2891 -0.2280  0.0071
  535PNCE   C2B 4811   1.053   2.068   7.792  0.3740  0.0858 -0.5606
  535PNCE   C3B 4812   1.351   1.869   7.557  0.0969 -0.0636 -0.0167
  535PNCE   D4B 4813   1.572   1.967   7.195  0.1757 -0.0260  0.1132
  535PNCE   C5B 4814   1.328   1.987   6.752  0.0559 -0.1206 -0.0392
  535PNCE   C6B 4815   1.049   1.879   6.393 -0.1033 -0.0968  0.1489
  536CHOL   ROH 4816   9.120   3.655   4.679  0.1450 -0.0077  0.0225
  536CHOL    R1 4817   9.331   3.699   4.861  0.1402  0.1281 -0.0032
  536CHOL    R2 4818   9.378   3.945   4.978 -0.0422  0.1441  0.0419
  536CHOL    R3 4819   9.364   3.801   5.209  0.1122  0.0813  0.0128
  536CHOL    R4 4820   9.400   4.080   5.296 -0.2129  0.1059  0.0708
  536CHOL    R5 4821   9.522   3.908   5.354 -0.0173  0.2341  0.0415
  536CHOL    C1 4822   9.400   4.024   5.697 -0.1671  0.0245  0.0603
  536CHOL    C2 4823   9.565   4.292   5.899 -0.0805 -0.3579 -0.1207
  537CHOL   ROH 4824  13.140  12.832   8.336  0.2955 -0.2571 -0.0270
  537CHOL    R1 4825  13.229  12.739   8.084  0.0854 -0.0929 -0.1678
  537CHOL    R2 4826  13.129  12.836   7.845 -0.0217  0.1668 -0.0342
  537CHOL    R3 4827  13.391  12.883   7.791 -0.0297  0.0760 -0.1452
  537CHOL    R4 4828  13.277  12.803   7.534 -0.1029 -0.0524 -0.0497
  537CHOL    R5 4829  13.451  12.716   7.631 -0.1033 -0.0241 -0.0543
  537CHOL    C1 4830  13.609  12.828   7.303 -0.1578 -0.2654 -0.1629
  537CHOL    C2 4831  13.802  12.752   6.946 -0.0016 -0.4115  0.0967
  538PNCE   AM1 4832   5.958   7.026   8.090 -0.2672  0.0497  0.1152
  538PNCE   AM2 4833   5.678   6.742   8.159  0.0388  0.2358 -0.4445
  538PNCE   T1A 4834   5.746   7.091   7.661 -0.0087 -0.0029  0.2561
  538PNCE   C2A 4835   5.704   7.228   7.271  0.3691  0.1243  0.0519
  538PNCE   C3A 4836   5.427   7.433   7.078  0.0244  0.2095 -0.3806
  538PNCE   C1B 4837   5.460   6.607   7.733  0.3543  0.1459 -0.6051
  538PNCE   C2B 4838   5.313   6.425   7.326 -0.0699  0.0749 -0.0857
  538PNCE   C3B 4839   5.032   6.530   7.056 -0.0025 -0.1070  0.1074
  538PNCE   D4B 4840   4.579   6.468   6.972  0.2232 -0.0644 -0.2081
  538PNCE   C5B 4841   4.213   6.466   7.259 -0.1935 -0.1064 -0.1274
  538PNCE   C6B 4842   3.853   6.643   7.361  0.0265  0.0711  0.3247
  539XCA    COO 4843   3.322   6.278   8.347 -0.3300  0.3110  0.0750
  539XCA     C1 4844   3.338   6.329   7.820  0.0155  0.1978 -0.0242
  539XCA     C2 4845   3.573   6.236   7.536 -0.0080 -0.1948 -0.3161
  539XCA     C3 4846   4.103   6.159   7.624  0.2082  0.3074 -0.2543
  539XCA     C4 4847   4.557   6.163   7.451  0.0042  0.0302  0.3057
  539XCA     C5 4848   4.957   6.066   7.331 -0.0796 -0.1456  0.0501
  539XCA     C6 4849   5.313   5.815   7.260  0.1922 -0.0104 -0.0208
  540CHOL   ROH 4850   3.821   7.158   7.954  0.2630 -0.0717 -0.0365
  540CHOL    R1 4851   3.856   7.109   7.678  0.1060 -0.0706 -0.0575
  540CHOL    R2 4852   3.649   7.026   7.514 -0.0139  0.0369  0.0360
  540CHOL    R3 4853   3.722   7.243   7.367  0.0172  0.0130  0.0164
  540CHOL    R4 4854   3.586   7.066   7.176  0.0957 -0.0340  0.0069
  540CHOL    R5 4855   3.785   7.152   7.155  0.0950 -0.0229  0.0556
  540CHOL    C1 4856   3.619   7.292   6.842  0.1888 -0.0978 -0.0285
  540CHOL    C2 4857   3.533   7.648   6.583  0.0989  0.2460 -0.2605
  541PNCE   AM1 4858  14.046   8.591   8.120  0.0383 -0.2554 -0.1488
  541PNCE   AM2 4859  13.714   8.758   8.160 -0.1608  0.0407 -0.1156
  541PNCE   T1A 4860  14.528   8.553   8.170 -0.0169 -0.0646 -0.0263
  541PNCE   C2A 4861  14.813   8.398   7.776  0.0823  0.1120 -0.1288
  541PNCE   C3A 4862  15.090   8.291   7.374 -0.0594 -0.1277 -0.0647
  541PNCE   C1B 4863  13.959   9.095   7.930 -0.1607  0.2018 -0.2110
  541PNCE   C2B 4864  14.192   9.352   7.649  0.2195 -0.1105  0.0945
  541PNCE   C3B 4865  14.296   9.619   7.337  0.1531  0.0680  0.0293
  541PNCE   D4B 4866  14.197   9.699   6.939  0.0966 -0.0378  0.1654
  541PNCE   C5B 4867  14.108   9.336   6.695 -0.0253 -0.0883 -0.0756
  541PNCE   C6B 4868  14.117   8.982   6.668  0.1580  0.0516 -0.0236
  542PNCE   AM1 4869   0.703  10.954   9.066 -0.0726  0.0463 -0.2729
  542PNCE   AM2 4870   0.876  10.647   9.070 -0.0253 -0.3542 -0.2187
  542PNCE   T1A 4871   0.895  11.111   8.720 -0.0244  0.1248  0.3724
  542PNCE   C2A 4872   0.973  11.192   8.275 -0.1876 -0.0189  0.1190
  542PNCE   C3A 4873   1.040  11.484   7.910  0.0947  0.0145  0.0861
  542PNCE   C1B 4874   0.974  10.628   8.694 -0.3460 -0.0022 -0.1734
  542PNCE   C2B 4875   0.793  10.645   8.241 -0.0265 -0.2370 -0.0216
  542PNCE   C3B 4876   0.679  10.408   7.900 -0.2407  0.3943 -0.1954
  542PNCE   D4B 4877   0.583  10.178   7.559 -0.0663 -0.1074  0.2120
  542PNCE   C5B 4878   0.667  10.350   7.104 -0.0999  0.2761  0.1009
  542PNCE   C6B 4879   0.755  10.053   6.764 -0.0562  0.2057  0.2070
  543PNCE   AM1 4880   7.600   6.024   8.256 -0.0298  0.1142  0.0041
  543PNCE   AM2 4881   7.938   6.011   8.342  0.5370 -0.2583 -0.2705
  543PNCE   T1A 4882   7.527   5.772   7.840 -0.2027  0.0919  0.0828
  543PNCE   C2A 4883   7.679   5.786   7.443  0.2755 -0.4659 -0.0463
  543PNCE   C3A 4884   7.910   5.935   7.054 -0.2287  0.3826 -0.2527
  543PNCE   C1B 4885   7.775   6.339   7.934 -0.1111  0.1001  0.2142
  543PNCE   C2B 4886   7.511   6.245   7.583 -0.2105 -0.0280 -0.1988
  543PNCE   C3B 4887   7.535   6.178   7.139  0.2150 -0.0285  0.0684
  543PNCE   D4B 4888   7.470   6.047   6.668  0.1403  0.0404 -0.2211
  543PNCE   C5B 4889   7.614   6.305   6.380 -0.1389 -0.0955 -0.0466
  543PNCE   C6B 4890   7.470   6.418   6.031 -0.3989 -0.3096  0.0013
  544CHOL   ROH 4891   7.765   8.603   7.941 -0.1592  0.2154  0.0396
  544CHOL    R1 4892   7.601   8.654   7.716  0.0168  0.2068 -0.0937
  544CHOL    R2 4893   7.705   8.718   7.468  0.2275 -0.1295 -0.1062
  544CHOL    R3 4894   7.554   8.508   7.386  0.0308 -0.0348  0.0112
  544CHOL    R4 4895   7.535   8.702   7.168 -0.1527  0.0264  0.0957
  544CHOL    R5 4896   7.368   8.608   7.273 -0.0638  0.0740  0.2668
  544CHOL    C1 4897   7.293   8.496   6.916 -0.5587  0.2061  0.3235
  544CHOL    C2 4898   7.003   8.402   6.584  0.0622  0.2014  0.0408
  545PNCE   AM1 4899   6.172   9.860   8.083  0.2025 -0.0222  0.1398
  545PNCE   AM2 4900   6.462   9.804   8.301  0.0879 -0.0874 -0.2632
  545PNCE   T1A 4901   6.158   9.838   7.704  0.0091  0.0056  0.1588
  545PNCE   C2A 4902   6.270   9.651   7.267  0.2688 -0.1198 -0.0362
  545PNCE   C3A 4903   6.456   9.560   6.845 -0.0039 -0.2532 -0.0730
  545PNCE   C1B 4904   6.351   9.388   8.102  0.0404 -0.4120  0.2050
  545PNCE   C2B 4905   6.361   9.351   7.674 -0.2538 -0.1380  0.1480
  545PNCE   C3B 4906   6.118   9.180   7.314  0.0151  0.0930 -0.3485
  545PNCE   D4B 4907   6.258   8.984   6.900 -0.2247  0.0632 -0.0938
  545PNCE   C5B 4908   6.653   8.776   6.810  0.4318  0.1796  0.2216
  545PNCE   C6B 4909   7.139   8.912   6.766 -0.0624  0.4926 -0.1230
  546PNCE   AM1 4910  13.068  10.505   8.513 -0.0230  0.1420  0.3104
  546PNCE   AM2 4911  13.295  10.330   8.284 -0.1558 -0.0280  0.1716
  546PNCE   T1A 4912  12.784  10.650   8.081 -0.0451 -0.1256  0.3751
  546PNCE   C2A 4913  12.399  10.685   7.701 -0.0214 -0.2136 -0.0177
  546PNCE   C3A 4914  12.082  11.023   7.653  0.1921  0.0757 -0.0189
  546PNCE   C1B 4915  13.476  10.214   7.905 -0.0810 -0.0844 -0.1181
  546PNCE   C2B 4916  13.580  10.215   7.510  0.2472 -0.2889  0.4105
  546PNCE   C3B 4917  13.443  10.258   7.072  0.0227  0.3993 -0.3635
  546PNCE   D4B 4918  13.086  10.378   6.738 -0.3129 -0.1942  0.3519
  546PNCE   C5B 4919  12.809  10.603   7.097 -0.1286  0.1783  0.3264
  546PNCE   C6B 4920  12.741  10.373   7.526  0.0002 -0.0732  0.0321
  547PNCE   AM1 4921   4.451  15.089   8.633  0.2306  0.1029  0.0064
  547PNCE   AM2 4922   4.558  15.283   8.402 -0.0309 -0.1000  0.2857
  547PNCE   T1A 4923   4.085  15.264   8.444 -0.0536  0.2409 -0.0136
  547PNCE   C2A 4924   4.016  15.365   7.994 -0.1055  0.0826  0.4436
  547PNCE   C3A 4925   3.857  15.288   7.674 -0.0461 -0.1099  0.0764
  547PNCE   C1B 4926   4.456  15.164   8.044 -0.0813 -0.0645  0.3735
  547PNCE   C2B 4927   4.397  15.314   7.609 -0.1090 -0.1619 -0.4374
  547PNCE   C3B 4928   4.102  15.271   7.258 -0.2969  0.0263 -0.1298
  547PNCE   D4B 4929   3.664  15.150   7.246  0.0074 -0.2098 -0.3886
  547PNCE   C5B 4930   3.312  14.830   7.273 -0.1429  0.3743  0.3255
  547PNCE   C6B 4931   3.234  14.470   7.400  0.0094  0.0141 -0.0221
  548PNCE   AM1 4932   6.781  11.979   8.425  0.0778 -0.0264 -0.1174
  548PNCE   AM2 4933   6.891  12.005   8.673 -0.0116 -0.0809 -0.2498
  548PNCE   T1A 4934   6.884  12.134   8.054 -0.0178 -0.2807  0.2484
  548PNCE   C2A 4935   7.020  12.125   7.684 -0.2414  0.1338  0.2714
  548PNCE   C3A 4936   6.930  12.363   7.267 -0.0629  0.0161  0.0303
  548PNCE   C1B 4937   6.948  11.567   8.659  0.2574 -0.2060  0.3037
  548PNCE   C2B 4938   7.268  11.469   8.389  0.0535 -0.2633 -0.2585
  548PNCE   C3B 4939   7.486  11.333   8.019 -0.0486 -0.0321 -0.1696
  548PNCE   D4B 4940   7.494  11.435   7.625  0.3208  0.4015 -0.3804
  548PNCE   C5B 4941   7.771  11.264   7.297 -0.0224 -0.1083  0.3606
  548PNCE   C6B 4942   7.676  10.952   7.125  0.1552 -0.1184  0.1272
  549CHOL   ROH 4943   4.876   2.556   5.136 -0.3057 -0.1917 -0.0826
  549CHOL    R1 4944   4.813   2.556   5.412 -0.2165 -0.0173 -0.0611
  549CHOL    R2 4945   5.006   2.565   5.609 -0.1454 -0.0791 -0.1323
  549CHOL    R3 4946   4.862   2.779   5.695  0.0496  0.0734 -0.1744
  549CHOL    R4 4947   4.965   2.655   5.940 -0.1478 -0.0415 -0.1420
  549CHOL    R5 4948   4.757   2.703   5.897 -0.0908  0.1768 -0.2045
  549CHOL    C1 4949   4.806   2.909   6.214  0.0338  0.1237 -0.1872
  549CHOL    C2 4950   4.504   2.922   6.415  0.0590 -0.0535 -0.4312
  550XCA    COO 4951   5.299  12.135   8.979 -0.3599  0.2234 -0.4061
  550XCA     C1 4952   5.299  11.834   8.617 -0.2516  0.2562  0.1144
  550XCA     C2 4953   5.209  11.873   8.205 -0.0564 -0.3326  0.2368
  550XCA     C3 4954   5.224  11.773   7.807 -0.1042  0.1465 -0.0957
  550XCA     C4 4955   4.914  11.738   7.574 -0.0967 -0.1981 -0.2812
  550XCA     C5 4956   4.712  11.657   7.131 -0.3001  0.1725  0.1372
  550XCA     C6 4957   4.584  11.569   6.746 -0.2075  0.2374 -0.1324
  551PNCE   AM1 4958   2.536   0.023   9.171  0.1382 -0.0189  0.2169
  551PNCE   AM2 4959   2.875   0.111   9.239 -0.1461 -0.0182 -0.0432
  551PNCE   T1A 4960   2.369   0.037   8.747  0.1739 -0.0658  0.1056
  551PNCE   C2A 4961   2.195   0.125   8.422 -0.2725  0.0324  0.1903
  551PNCE   C3A 4962   2.101   0.064   8.049  0.1636 -0.1375  0.1084
  551PNCE   C1B 4963   2.880   0.168   8.737  0.1456  0.0014 -0.1156
  551PNCE   C2B 4964   2.797   0.241   8.239 -0.1022 -0.1804  0.0380
  551PNCE   C3B 4965   2.866   0.311   7.810  0.0432 -0.0047 -0.3091
  551PNCE   D4B 4966   2.869   0.498   7.419 -0.0077  0.1282  0.1760
  551PNCE   C5B 4967   2.755   0.286   7.072  0.2905  0.0922  0.0244
  551PNCE   C6B 4968   2.618  -0.090   7.129 -0.2491  0.1735  0.1534
  552XCA    COO 4969  10.459   5.228   7.638 -0.3118  0.0142  0.1738
  552XCA     C1 4970  10.289   5.108   7.284 -0.1162 -0.1882 -0.0466
  552XCA     C2 4971  10.127   5.286   6.902  0.0079  0.2517  0.0265
  552XCA     C3 4972   9.916   5.333   6.625  0.2114 -0.0320  0.0559
  552XCA     C4 4973   9.850   5.101   6.286 -0.1905  0.0976  0.0372
  552XCA     C5 4974   9.615   4.816   6.067 -0.3363  0.1432 -0.1279
  552XCA     C6 4975   9.727   4.710   5.592  0.1575 -0.1450  0.1747
  553PNCE   AM1 4976  12.171   7.951   6.737  0.1215  0.1142 -0.4125
  553PNCE   AM2 4977  11.975   7.827   6.869  0.1041  0.0526  0.0226
  553PNCE   T1A 4978  11.999   8.353   6.604  0.0099  0.0771  0.2732
  553PNCE   C2A 4979  12.111   8.707   6.354  0.1936 -0.1178  0.1130
  553PNCE   C3A 4980  12.470   8.828   6.206 -0.1461 -0.0463 -0.1713
  553PNCE   C1B 4981  11.672   7.986   6.476 -0.2349 -0.1368  0.1344
  553PNCE   C2B 4982  11.281   8.205   6.338  0.0289 -0.1652  0.0577
  553PNCE   C3B 4983  10.888   8.150   6.125 -0.1499  0.1456  0.0789
  553PNCE   D4B 4984  10.678   7.867   6.091  0.0732  0.1661 -0.3563
  553PNCE   C5B 4985  10.354   7.897   5.828  0.1829 -0.1145 -0.1280
  553PNCE   C6B 4986  10.207   8.172   5.486  0.0442  0.1237  0.3855
  554CHOL   ROH 4987  14.787   4.825   5.628 -0.0806  0.0041 -0.0101
  554CHOL    R1 4988  14.505   4.842   5.633 -0.0752  0.0800  0.0572
  554CHOL    R2 4989  14.347   4.662   5.772 -0.0944  0.0775  0.0326
  554CHOL    R3 4990  14.248   4.888   5.886 -0.0077  0.0674  0.1288
  554CHOL    R4 4991  14.069   4.674   5.977 -0.2479  0.1289 -0.1750
  554CHOL    R5 4992  14.010   4.859   5.879 -0.0278  0.2546 -0.0811
  554CHOL    C1 4993  13.814   4.892   6.205 -0.2560  0.1494 -0.2055
  554CHOL    C2 4994  13.774   4.996   6.515  0.0868 -0.1423 -0.0494
  555CHOL   ROH 4995   1.818  10.979   8.664  0.0586 -0.1381 -0.1279
  555CHOL    R1 4996   1.674  11.047   8.430  0.1003 -0.1226 -0.1491
  555CHOL    R2 4997   1.552  11.293   8.397  0.0149 -0.1592 -0.1100
  555CHOL    R3 4998   1.699  11.300   8.169  0.0796 -0.0333 -0.0650
  555CHOL    R4 4999   1.422  11.318   8.078  0.1027 -0.0478 -0.1377
  555CHOL    R5 5000   1.571  11.174   8.011  0.1493  0.0094 -0.1565
  555CHOL    C1 5001   1.484  11.339   7.678  0.2146  0.1353 -0.1116
  555CHOL    C2 5002   1.200  11.251   7.479  0.1132  0.3489  0.3470
  556CHOL   ROH 5003  11.323   1.269   8.864  0.2369  0.0667 -0.1948
  556CHOL    R1 5004  11.158   1.425   8.695  0.0296 -0.0266 -0.0803
  556CHOL    R2 5005  11.180   1.421   8.419 -0.0141  0.1471 -0.0828
  556CHOL    R3 5006  10.915   1.362   8.431  0.0493 -0.1551 -0.0705
  556CHOL    R4 5007  10.950   1.493   8.172 -0.1688  0.2663  0.0925
  556CHOL    R5 5008  10.807   1.548   8.327 -0.1829 -0.1061  0.2319
  556CHOL    C1 5009  10.567   1.479   8.039 -0.1995  0.0519  0.2060
  556CHOL    C2 5010  10.327   1.556   7.702 -0.1374  0.1151  0.1620
  557PNCE   AM1 5011   0.953   4.202   8.226  0.0460 -0.0422  0.0142
  557PNCE   AM2 5012   0.675   4.335   8.247  0.0571  0.3385 -0.0098
  557PNCE   T1A 5013   1.048   4.138   7.857 -0.0323  0.0897 -0.0756
  557PNCE   C2A 5014   1.074   4.121   7.458 -0.2059 -0.0204 -0.0715
  557PNCE   C3A 5015   1.378   3.983   7.167 -0.0801 -0.1892  0.1837
  557PNCE   C1B 5016   0.518   4.024   7.964 -0.1967 -0.0332 -0.1368
  557PNCE   C2B 5017   0.496   3.836   7.595 -0.1131 -0.0063 -0.2819
  557PNCE   C3B 5018   0.649   3.671   7.247 -0.0516  0.1445 -0.0181
  557PNCE   D4B 5019   0.669   3.370   6.943 -0.2745  0.0831  0.0333
  557PNCE   C5B 5020   0.812   3.614   6.626  0.3581  0.2101 -0.1866
  557PNCE   C6B 5021   0.814   3.969   6.458  0.0131 -0.2860 -0.1687
  558CHOL   ROH 5022   4.062   6.810   5.616 -0.0762  0.1403  0.3653
  558CHOL    R1 5023   3.978   6.551   5.695 -0.0018  0.0892  0.2809
  558CHOL    R2 5024   4.012   6.457   5.952  0.0050  0.0219  0.2576
  558CHOL    R3 5025   3.744   6.411   5.936  0.0208 -0.0558  0.2190
  558CHOL    R4 5026   3.854   6.168   6.058  0.0723 -0.0263  0.2258
  558CHOL    R5 5027   3.727   6.178   5.881  0.0947 -0.0581  0.2098
  558CHOL    C1 5028   3.511   5.957   6.105  0.1262 -0.1273  0.1710
  558CHOL    C2 5029   3.501   5.629   6.274 -0.1418 -0.0360 -0.0416
  559PNCE   AM1 5030  13.927   9.122   8.570  0.0753  0.2307  0.0307
  559PNCE   AM2 5031  14.265   9.249   8.730  0.0141  0.0220 -0.1268
  559PNCE   T1A 5032  13.907   9.557   8.416  0.0204 -0.0184 -0.2264
  559PNCE   C2A 5033  13.839   9.678   8.001  0.1380  0.1439  0.0390
  559PNCE   C3A 5034  13.912   9.852   7.546  0.0173  0.4909  0.0702
  559PNCE   C1B 5035  14.307   9.331   8.177  0.1897  0.1958  0.1114
  559PNCE   C2B 5036  14.584   9.465   7.835 -0.1272 -0.1964 -0.2842
  559PNCE   C3B 5037  14.746   9.824   7.580 -0.0410  0.0509 -0.2128
  559PNCE   D4B 5038  15.133   9.947   7.460  0.0846  0.0950  0.0218
  559PNCE   C5B 5039  15.104  10.012   7.035  0.0671  0.0314  0.1242
  559PNCE   C6B 5040  15.000   9.851   6.670  0.0156 -0.3542 -0.0695
  560PNCE   AM1 5041   2.123  14.543   8.542  0.0409 -0.1697  0.3023
  560PNCE   AM2 5042   1.981  14.679   8.249  0.1954 -0.2086  0.3339
  560PNCE   T1A 5043   2.608  14.680   8.363  0.5829  0.1531  0.4451
  560PNCE   C2A 5044   2.744  14.780   7.924 -0.3491 -0.0590 -0.2260
  560PNCE   C3A 5045   2.909  15.013   7.498  0.2682 -0.2448 -0.1453
  560PNCE   C1B 5046   2.144  14.605   7.869  0.1253 -0.0930 -0.0419
  560PNCE   C2B 5047   2.486  14.420   7.588 -0.1457  0.3263  0.0917
  560PNCE   C3B 5048   2.780  14.567   7.298  0.1438  0.0814  0.3147
  560PNCE   D4B 5049   2.869  14.913   7.043 -0.1178 -0.1139  0.0343
  560PNCE   C5B 5050   3.032  14.875   6.591 -0.1919  0.2057  0.0820
  560PNCE   C6B 5051   3.211  15.184   6.358 -0.1005  0.1409  0.2536
  561PNCE   AM1 5052  10.526  15.607   9.149  0.2800  0.1310  0.1376
  561PNCE   AM2 5053  10.801  15.575   9.063 -0.1880 -0.2003 -0.2617
  561PNCE   T1A 5054  10.492  15.368   8.713 -0.0209  0.2574  0.2476
  561PNCE   C2A 5055  10.555  15.450   8.190 -0.3211  0.1291 -0.4954
  561PNCE   C3A 5056  10.256  15.434   7.737 -0.3730  0.1494  0.2744
  561PNCE   C1B 5057  10.798  15.823   8.750  0.3117  0.1593 -0.4034
  561PNCE   C2B 5058  11.121  15.960   8.493 -0.1142  0.0068  0.4158
  561PNCE   C3B 5059  11.497  16.028   8.246 -0.1879  0.1303 -0.0321
  561PNCE   D4B 5060  11.795  16.404   8.087  0.1618  0.2286 -0.0402
  561PNCE   C5B 5061  11.609  16.766   8.163  0.1383 -0.0179 -0.0837
  561PNCE   C6B 5062  11.281  17.032   8.095 -0.1606  0.1176 -0.0605
  562PNCE   AM1 5063  11.161   4.705   7.512 -0.1188  0.0140 -0.3130
  562PNCE   AM2 5064  10.991   4.536   7.751  0.1080  0.0299  0.1011
  562PNCE   T1A 5065  11.276   4.522   7.109  0.2789  0.0316 -0.0414
  562PNCE   C2A 5066  11.270   4.238   6.819  0.1291  0.1574  0.0818
  562PNCE   C3A 5067  11.357   4.112   6.490 -0.0826  0.0193 -0.2401
  562PNCE   C1B 5068  10.893   4.321   7.347 -0.0327 -0.0660  0.3652
  562PNCE   C2B 5069  10.863   4.088   7.067 -0.0978 -0.2383  0.1149
  562PNCE   C3B 5070  10.777   4.104   6.711 -0.0057  0.3033  0.2414
  562PNCE   D4B 5071  10.651   3.938   6.479 -0.1336  0.2647 -0.2419
  562PNCE   C5B 5072  10.649   3.522   6.292 -0.0808 -0.4375 -0.0308
  562PNCE   C6B 5073  10.521   3.139   6.312  0.1096 -0.0684  0.1407
  563PNCE   AM1 5074   7.993   7.316   8.186 -0.2707 -0.0860 -0.0028
  563PNCE   AM2 5075   8.400   7.308   8.280 -0.1416  0.0799 -0.1808
  563PNCE   T1A 5076   7.862   6.870   7.915  0.0648 -0.1172  0.2571
  563PNCE   C2A 5077   7.775   6.694   7.499  0.2366 -0.1787 -0.3553
  563PNCE   C3A 5078   7.698   6.859   7.116 -0.1315  0.1306 -0.2740
  563PNCE   C1B 5079   8.534   7.568   7.973  0.2161  0.0300 -0.1332
  563PNCE   C2B 5080   8.733   7.584   7.529  0.1634  0.2523  0.0131
  563PNCE   C3B 5081   9.040   7.704   7.179 -0.0609  0.1571 -0.1017
  563PNCE   D4B 5082   9.501   7.836   7.293 -0.1512 -0.1096  0.1207
  563PNCE   C5B 5083   9.923   7.983   7.002 -0.0856 -0.0243 -0.2483
  563PNCE   C6B 5084  10.115   8.000   6.688 -0.1189  0.1023  0.0196
  564PNCE   AM1 5085  14.794   4.185   8.057 -0.1384 -0.1154 -0.0204
  564PNCE   AM2 5086  14.968   3.921   8.236 -0.0213  0.3466  0.3370
  564PNCE   T1A 5087  14.876   3.971   7.717 -0.1117  0.1351 -0.1745
  564PNCE   C2A 5088  15.085   3.859   7.298  0.1412 -0.1054  0.1077
  564PNCE   C3A 5089  15.168   3.700   6.772 -0.1559 -0.2539  0.1780
  564PNCE   C1B 5090  15.341   3.899   7.909  0.3865  0.2671 -0.3644
  564PNCE   C2B 5091  15.450   3.648   7.611 -0.3801 -0.0401  0.2618
  564PNCE   C3B 5092  15.456   3.488   7.102 -0.2498  0.1235 -0.0273
  564PNCE   D4B 5093  15.617   3.189   6.907  0.1426  0.0022  0.0998
  564PNCE   C5B 5094  15.504   2.732   6.945 -0.0911  0.2221 -0.1781
  564PNCE   C6B 5095  15.511   2.400   7.200  0.1786 -0.2049  0.2280
  565CHOL   ROH 5096   0.489   6.417   6.964 -0.0939  0.3756 -0.2672
  565CHOL    R1 5097   0.605   6.373   6.710 -0.0085  0.2320 -0.2050
  565CHOL    R2 5098   0.842   6.492   6.633  0.0795  0.0946 -0.1501
  565CHOL    R3 5099   0.916   6.235   6.581 -0.0184  0.0411 -0.0287
  565CHOL    R4 5100   1.084   6.398   6.404  0.1855 -0.0947  0.0357
  565CHOL    R5 5101   0.956   6.231   6.345  0.1374 -0.0449 -0.0021
  565CHOL    C1 5102   1.294   6.103   6.222  0.1553 -0.2553  0.2578
  565CHOL    C2 5103   1.425   5.805   6.051 -0.3554 -0.2931  0.1171
  566CHOL   ROH 5104  13.562  10.633   4.730  0.0070  0.0732  0.0478
  566CHOL    R1 5105  13.636  10.678   4.999  0.0338  0.1045  0.0353
  566CHOL    R2 5106  13.519  10.542   5.210  0.0425  0.1417  0.0633
  566CHOL    R3 5107  13.777  10.481   5.271  0.0435  0.1314  0.0501
  566CHOL    R4 5108  13.628  10.431   5.519  0.0483  0.1138  0.0514
  566CHOL    R5 5109  13.804  10.557   5.496  0.0509  0.1128  0.0563
  566CHOL    C1 5110  13.934  10.309   5.755  0.0523  0.0880  0.0320
  566CHOL    C2 5111  13.885  10.394   6.159 -0.2750  0.0930  0.0254
  567PNCE   AM1 5112   4.510   9.374   8.264 -0.1866  0.1790  0.4140
  567PNCE   AM2 5113   4.344   9.379   8.079 -0.0656  0.0858  0.2189
  567PNCE   T1A 5114   4.840   9.143   8.126  0.1865 -0.1855 -0.1344
  567PNCE   C2A 5115   5.181   8.880   7.917  0.2277  0.1826 -0.2168
  567PNCE   C3A 5116   5.431   8.473   7.965 -0.1306  0.0452  0.3106
  567PNCE   C1B 5117   4.411   8.974   7.876 -0.0037 -0.1419 -0.3090
  567PNCE   C2B 5118   4.439   8.796   7.433 -0.1680  0.0889 -0.0498
  567PNCE   C3B 5119   4.359   8.409   7.138 -0.1957 -0.2443 -0.0113
  567PNCE   D4B 5120   4.668   8.244   6.642 -0.2410 -0.0351 -0.3054
  567PNCE   C5B 5121   4.987   8.490   6.435  0.0545  0.2749  0.1160
  567PNCE   C6B 5122   5.042   8.908   6.331  0.0500  0.1743 -0.0280
  568PNCE   AM1 5123   7.589   9.709   8.463 -0.3574 -0.0649 -0.0915
  568PNCE   AM2 5124   7.853   9.423   8.223  0.1500 -0.0807 -0.1020
  568PNCE   T1A 5125   7.419   9.761   8.081 -0.2253  0.1955 -0.3899
  568PNCE   C2A 5126   7.499   9.562   7.705  0.0034  0.0077  0.0943
  568PNCE   C3A 5127   7.417   9.667   7.314 -0.0343 -0.0143 -0.2727
  568PNCE   C1B 5128   7.991   9.835   8.136 -0.3126  0.1124  0.2451
  568PNCE   C2B 5129   8.295  10.174   8.069 -0.2295  0.1181  0.0727
  568PNCE   C3B 5130   8.208  10.436   7.695 -0.1350 -0.0269  0.0716
  568PNCE   D4B 5131   7.858  10.474   7.323  0.2376  0.0840 -0.2768
  568PNCE   C5B 5132   7.388  10.531   7.104  0.1308  0.0546 -0.3646
  568PNCE   C6B 5133   7.024  10.221   7.232  0.1637  0.0347 -0.2802
  569PNCE   AM1 5134  13.780   2.278   8.307  0.1830  0.0515 -0.3773
  569PNCE   AM2 5135  14.109   2.125   8.234  0.0855  0.2601 -0.0462
  569PNCE   T1A 5136  13.689   2.130   7.884  0.1609 -0.2709  0.2452
  569PNCE   C2A 5137  13.388   2.257   7.620  0.0244 -0.1237  0.0710
  569PNCE   C3A 5138  13.569   2.603   7.314 -0.0307 -0.1140 -0.0067
  569PNCE   C1B 5139  14.129   1.833   7.915 -0.1861  0.0289 -0.0153
  569PNCE   C2B 5140  14.140   1.927   7.528 -0.1471  0.2119  0.3415
  569PNCE   C3B 5141  14.537   1.921   7.180  0.1294  0.0543  0.2537
  569PNCE   D4B 5142  14.843   1.756   6.881  0.1315 -0.0792  0.0232
  569PNCE   C5B 5143  15.275   1.473   7.127  0.1730  0.2905  0.0634
  569PNCE   C6B 5144  15.649   1.585   7.103 -0.2302 -0.0706  0.0565
  570CHOL   ROH 5145   7.217   1.782   6.345 -0.0314  0.0392 -0.2483
  570CHOL    R1 5146   7.408   1.717   6.544 -0.0839  0.1216 -0.1740
  570CHOL    R2 5147   7.594   1.515   6.511 -0.0468  0.1558 -0.0668
  570CHOL    R3 5148   7.770   1.713   6.570 -0.0878  0.1913 -0.0489
  570CHOL    R4 5149   7.904   1.468   6.656  0.0335  0.1692 -0.2272
  570CHOL    R5 5150   7.870   1.645   6.776  0.0232  0.1096 -0.1166
  570CHOL    C1 5151   8.251   1.627   6.795  0.0417  0.2103 -0.3038
  570CHOL    C2 5152   8.464   1.741   7.123  0.0525 -0.1853  0.1096
  571XCA    COO 5153   2.175   1.891   8.991  0.0748 -0.2719  0.0990
  571XCA     C1 5154   2.184   1.652   8.584  0.2447 -0.0605 -0.0594
  571XCA     C2 5155   1.928   1.736   8.209  0.0555 -0.0747 -0.2635
  571XCA     C3 5156   1.548   1.542   8.029  0.0560 -0.1128 -0.2787
  571XCA     C4 5157   1.500   1.290   7.698  0.0457  0.0687  0.0251
  571XCA     C5 5158   1.239   1.351   7.392  0.2333  0.1193  0.0872
  571XCA     C6 5159   1.181   1.594   7.020 -0.0292  0.1264  0.0542
  572PNCE   AM1 5160   0.048  14.064   9.156 -0.0801 -0.0181 -0.3423
  572PNCE   AM2 5161  -0.043  13.722   8.998  0.1692 -0.1877 -0.3234
  572PNCE   T1A 5162  -0.088  14.260   8.802 -0.0281  0.2467 -0.2407
  572PNCE   C2A 5163  -0.285  14.052   8.447 -0.1985  0.1921  0.2036
  572PNCE   C3A 5164  -0.501  14.055   8.129  0.1375  0.0341  0.2654
  572PNCE   C1B 5165  -0.072  13.602   8.591 -0.3554  0.2015  0.1579
  572PNCE   C2B 5166  -0.209  13.610   8.185 -0.2919 -0.1293 -0.2093
  572PNCE   C3B 5167  -0.439  13.587   7.951 -0.1291  0.1055 -0.3697
  572PNCE   D4B 5168  -0.583  13.729   7.639  0.1126  0.1303  0.0631
  572PNCE   C5B 5169  -0.315  14.123   7.425 -0.2255  0.0227 -0.2992
  572PNCE   C6B 5170   0.089  14.292   7.466  0.0978 -0.1836 -0.0188
  573CHOL   ROH 5171  12.489   4.621   4.143 -0.0593 -0.1091  0.3488
  573CHOL    R1 5172  12.641   4.587   4.379  0.0683  0.0132  0.2862
  573CHOL    R2 5173  12.897   4.686   4.407  0.0664  0.0723  0.1161
  573CHOL    R3 5174  12.793   4.803   4.630  0.1574  0.1420  0.1224
  573CHOL    R4 5175  13.045   4.684   4.720  0.0713 -0.0468  0.1130
  573CHOL    R5 5176  12.848   4.652   4.807  0.0501  0.0955  0.1160
  573CHOL    C1 5177  13.033   4.792   5.110  0.1597 -0.0507  0.1171
  573CHOL    C2 5178  13.216   4.733   5.386  0.0654  0.2525  0.0193
  574PNCE   AM1 5179   2.566  14.306   8.068 -0.2692  0.4451  0.2334
  574PNCE   AM2 5180   2.236  14.193   8.227  0.0187  0.1128 -0.0461
  574PNCE   T1A 5181   2.933  14.297   7.728 -0.1312 -0.1717  0.0040
  574PNCE   C2A 5182   3.313  14.008   7.464 -0.2965  0.0091  0.0306
  574PNCE   C3A 5183   3.776  13.836   7.252 -0.2271  0.3197  0.0999
  574PNCE   C1B 5184   2.009  13.907   8.002  0.0913  0.0812  0.1259
  574PNCE   C2B 5185   1.562  13.855   7.811 -0.3866 -0.2524  0.1871
  574PNCE   C3B 5186   1.222  13.773   7.589 -0.1822 -0.1980  0.0167
  574PNCE   D4B 5187   0.771  13.739   7.477  0.0660  0.3384  0.0158
  574PNCE   C5B 5188   0.564  14.096   7.172  0.1903 -0.0281  0.0373
  574PNCE   C6B 5189   0.793  14.173   6.902  0.0684  0.1184  0.1812
  575PNCE   AM1 5190   7.432   9.117   8.141 -0.2128 -0.0862 -0.2141
  575PNCE   AM2 5191   7.197   9.315   8.282  0.0857 -0.0921 -0.0733
  575PNCE   T1A 5192   7.136   8.862   7.935  0.0024  0.3069 -0.1126
  575PNCE   C2A 5193   7.109   8.442   7.627 -0.0858  0.3799  0.0044
  575PNCE   C3A 5194   6.864   8.366   7.305 -0.1075  0.2506 -0.1009
  575PNCE   C1B 5195   6.873   9.586   8.078  0.0260  0.0297 -0.1698
  575PNCE   C2B 5196   6.646   9.785   7.867  0.2528 -0.2903 -0.0714
  575PNCE   C3B 5197   6.601  10.093   7.557 -0.0687 -0.1088  0.2955
  575PNCE   D4B 5198   6.438  10.414   7.302  0.0531  0.2035 -0.0641
  575PNCE   C5B 5199   6.436  10.533   6.961  0.2480 -0.0747 -0.0267
  575PNCE   C6B 5200   6.395  10.415   6.517  0.3140 -0.1407  0.2319
  576XCA    COO 5201  10.433  11.169   9.142  0.0908  0.0561 -0.0961
  576XCA     C1 5202  10.288  11.507   9.022 -0.0072  0.0545  0.0349
  576XCA     C2 5203   9.981  11.808   8.783  0.1045 -0.0960 -0.0685
  576XCA     C3 5204   9.987  12.092   8.490 -0.0462 -0.0286 -0.0891
  576XCA     C4 5205   9.710  12.413   8.350 -0.2159 -0.1971 -0.2524
  576XCA     C5 5206   9.333  12.433   8.108  0.0252 -0.0877 -0.3179
  576XCA     C6 5207   9.153  12.341   7.738 -0.0473  0.1888 -0.1031
  577XCA    COO 5208  12.321   4.016   7.964  0.0035  0.1997  0.3084
  577XCA     C1 5209  12.370   3.739   7.693 -0.3767 -0.0375 -0.4185
  577XCA     C2 5210  12.144   3.290   7.461 -0.0294 -0.3451 -0.1120
  577XCA     C3 5211  12.137   2.962   7.236 -0.1406 -0.4783 -0.3393
  577XCA     C4 5212  12.141   2.715   6.855 -0.0845  0.2340 -0.2414
  577XCA     C5 5213  12.194   2.615   6.439  0.0129  0.3467  0.0873
  577XCA     C6 5214  12.213   2.466   6.045 -0.1586 -0.0345  0.1345
  578PNCE   AM1 5215   3.127   9.398   8.343  0.1450  0.2388 -0.2680
  578PNCE   AM2 5216   3.376   9.158   8.414 -0.2036 -0.0169  0.0135
  578PNCE   T1A 5217   3.027   9.039   8.085 -0.3420  0.3415 -0.1560
  578PNCE   C2A 5218   3.069   8.721   7.761  0.2354  0.4357  0.2353
  578PNCE   C3A 5219   3.467   8.758   7.404  0.0418  0.1983  0.2975
  578PNCE   C1B 5220   3.690   9.404   8.139  0.3070  0.1732  0.3313
  578PNCE   C2B 5221   3.884   9.219   7.774 -0.0675  0.0022 -0.1411
  578PNCE   C3B 5222   3.940   9.114   7.283 -0.1297 -0.2848  0.0593
  578PNCE   D4B 5223   4.117   8.815   6.948  0.4151 -0.1258 -0.5316
  578PNCE   C5B 5224   3.921   8.894   6.518  0.1336 -0.3145 -0.3099
  578PNCE   C6B 5225   3.582   9.215   6.514 -0.2580  0.0795  0.1347
  579CHOL   ROH 5226   7.814   5.508   8.119 -0.1417 -0.0334  0.2284
  579CHOL    R1 5227   7.709   5.345   7.913 -0.1528 -0.0481  0.2453
  579CHOL    R2 5228   7.826   5.327   7.664 -0.2473  0.0477  0.1912
  579CHOL    R3 5229   7.823   5.060   7.717 -0.1010  0.0370  0.1514
  579CHOL    R4 5230   7.857   5.077   7.427 -0.1264  0.0968  0.1547
  579CHOL    R5 5231   7.704   4.964   7.533 -0.0588 -0.0010  0.1457
  579CHOL    C1 5232   7.871   4.681   7.339  0.0813  0.1152  0.0960
  579CHOL    C2 5233   7.937   4.333   7.122  0.0628 -0.0692  0.1426
  580PNCE   AM1 5234  14.572  14.643   8.738 -0.0360 -0.0303  0.0837
  580PNCE   AM2 5235  14.894  14.685   8.650  0.1683 -0.0203 -0.1395
  580PNCE   T1A 5236  14.583  14.400   8.362 -0.2124  0.2213  0.0794
  580PNCE   C2A 5237  14.657  14.429   7.922  0.1300  0.1787 -0.1934
  580PNCE   C3A 5238  14.481  14.564   7.536 -0.1349  0.4159  0.1282
  580PNCE   C1B 5239  14.999  14.768   8.213 -0.1575 -0.1312 -0.2686
  580PNCE   C2B 5240  15.332  14.823   7.903  0.2330  0.2658  0.0260
  580PNCE   C3B 5241  15.530  14.668   7.509 -0.0241 -0.2596  0.2118
  580PNCE   D4B 5242  15.771  14.468   7.067 -0.2406 -0.0555 -0.2715
  580PNCE   C5B 5243  15.745  14.601   6.695  0.2293 -0.0939  0.1551
  580PNCE   C6B 5244  16.081  14.601   6.359  0.0266 -0.0264  0.2711
  581CHOL   ROH 5245   1.315   4.107   5.048 -0.4140  0.0734 -0.2483
  581CHOL    R1 5246   1.291   4.291   5.262 -0.1318 -0.0905 -0.0695
  581CHOL    R2 5247   1.046   4.373   5.360 -0.0094  0.2171 -0.0192
  581CHOL    R3 5248   1.149   4.289   5.597 -0.1684 -0.1856 -0.0845
  581CHOL    R4 5249   0.901   4.427   5.669  0.0322  0.1428  0.0142
  581CHOL    R5 5250   1.099   4.466   5.750  0.0921 -0.2503  0.0844
  581CHOL    C1 5251   0.914   4.380   6.072 -0.0928 -0.2785 -0.0278
  581CHOL    C2 5252   0.824   4.421   6.431  0.2346 -0.1870 -0.1441
  582CHOL   ROH 5253   3.177  11.574   3.996  0.1912  0.1727  0.1236
  582CHOL    R1 5254   3.148  11.475   4.259  0.0747  0.0888  0.0808
  582CHOL    R2 5255   3.363  11.386   4.409 -0.0069 -0.0844  0.1018
  582CHOL    R3 5256   3.269  11.566   4.591  0.0463 -0.0993  0.1435
  582CHOL    R4 5257   3.375  11.346   4.752  0.1767 -0.0674  0.0978
  582CHOL    R5 5258   3.175  11.431   4.765  0.1653 -0.1118  0.1971
  582CHOL    C1 5259   3.294  11.491   5.122  0.3334 -0.0715  0.1347
  582CHOL    C2 5260   3.369  11.673   5.465  0.2123  0.0043 -0.0483
  583CHOL   ROH 5261   3.574   2.136   5.280 -0.1019  0.0992  0.0483
  583CHOL    R1 5262   3.636   1.957   5.490 -0.1486  0.0880  0.0523
  583CHOL    R2 5263   3.895   1.911   5.575 -0.1487 -0.0836 -0.0416
  583CHOL    R3 5264   3.793   1.979   5.818 -0.0059  0.0275 -0.0109
  583CHOL    R4 5265   3.967   1.748   5.871 -0.0790 -0.0364 -0.0322
  583CHOL    R5 5266   3.757   1.769   5.927 -0.0463  0.0704  0.0617
  583CHOL    C1 5267   3.914   1.717   6.271  0.0955  0.0952  0.0021
  583CHOL    C2 5268   3.724   1.686   6.671  0.0183  0.0110 -0.2808
  584XCA    COO 5269   3.934  14.567   8.736 -0.1016 -0.2058  0.3452
  584XCA     C1 5270   4.195  14.733   8.426 -0.3451  0.1055  0.0244
  584XCA     C2 5271   3.936  14.860   8.032  0.2575 -0.0037 -0.1272
  584XCA     C3 5272   4.015  14.851   7.615 -0.1520  0.2163  0.4026
  584XCA     C4 5273   4.459  14.798   7.471  0.1462  0.2051  0.1551
  584XCA     C5 5274   4.843  15.014   7.692  0.0315  0.1105 -0.0166
  584XCA     C6 5275   5.296  14.878   7.553  0.0606 -0.2342 -0.1319
  585PNCE   AM1 5276  10.254   6.759   7.618  0.1149 -0.0376 -0.0180
  585PNCE   AM2 5277   9.995   6.538   7.706  0.2324 -0.1145 -0.3116
  585PNCE   T1A 5278  10.173   7.062   7.404 -0.2009  0.2537 -0.0215
  585PNCE   C2A 5279   9.868   7.058   6.960  0.0251 -0.1143 -0.0504
  585PNCE   C3A 5280   9.782   6.957   6.512  0.0119  0.1962 -0.3522
  585PNCE   C1B 5281   9.849   6.559   7.246  0.1560  0.0843 -0.0036
  585PNCE   C2B 5282   9.720   6.517   6.772  0.1026  0.3535  0.0797
  585PNCE   C3B 5283   9.560   6.268   6.366  0.2410 -0.1385 -0.0523
  585PNCE   D4B 5284   9.212   6.295   6.092 -0.0307 -0.0963 -0.2045
  585PNCE   C5B 5285   9.281   5.934   5.742 -0.2563  0.4025 -0.0871
  585PNCE   C6B 5286   9.231   5.697   5.320  0.2092 -0.1083  0.3107
  586PNCE   AM1 5287  12.293   7.628   7.313  0.1905 -0.0894 -0.1244
  586PNCE   AM2 5288  12.605   7.518   7.468 -0.0365 -0.2107  0.1314
  586PNCE   T1A 5289  12.482   7.656   6.953 -0.2520  0.1252 -0.1679
  586PNCE   C2A 5290  12.647   7.630   6.535  0.1495  0.0091  0.3179
  586PNCE   C3A 5291  12.893   7.614   6.228  0.1268  0.3189 -0.2259
  586PNCE   C1B 5292  12.960   7.472   7.222 -0.2195 -0.1051 -0.0733
  586PNCE   C2B 5293  13.055   7.508   6.856  0.5476 -0.2023 -0.3720
  586PNCE   C3B 5294  13.411   7.516   6.547  0.1954 -0.1055  0.1688
  586PNCE   D4B 5295  13.831   7.442   6.399  0.4222 -0.0426 -0.0596
  586PNCE   C5B 5296  13.937   7.513   5.963  0.4002 -0.2565 -0.2710
  586PNCE   C6B 5297  13.650   7.657   5.643  0.0234  0.2880 -0.1234
  587CHOL   ROH 5298   8.982   1.017   9.253  0.1260  0.2523 -0.0305
  587CHOL    R1 5299   8.956   0.971   8.975  0.1401  0.1248 -0.0113
  587CHOL    R2 5300   8.795   1.126   8.813 -0.0744 -0.1223 -0.0433
  587CHOL    R3 5301   9.024   1.155   8.669 -0.1272  0.1050 -0.0845
  587CHOL    R4 5302   8.815   1.113   8.468 -0.1359  0.0045 -0.0519
  587CHOL    R5 5303   9.000   1.001   8.488 -0.0425  0.1449 -0.1285
  587CHOL    C1 5304   9.041   1.134   8.132 -0.2212  0.2917 -0.0955
  587CHOL    C2 5305   8.851   1.309   7.938  0.2264  0.0111  0.3775
  588PNCE   AM1 5306   6.087  12.407   8.438 -0.1551 -0.2654  0.2090
  588PNCE   AM2 5307   6.127  12.621   8.686 -0.1127  0.5305 -0.0566
  588PNCE   T1A 5308   5.982  12.670   8.058  0.1400  0.0974  0.3295
  588PNCE   C2A 5309   6.119  12.714   7.695  0.1006  0.1878 -0.3842
  588PNCE   C3A 5310   6.395  12.737   7.421  0.0427 -0.2665  0.1451
  588PNCE   C1B 5311   5.734  12.790   8.407 -0.0169  0.0468 -0.0303
  588PNCE   C2B 5312   5.310  12.736   8.114  0.0832  0.1265 -0.1259
  588PNCE   C3B 5313   4.833  12.693   7.781  0.1121 -0.3306 -0.2577
  588PNCE   D4B 5314   4.613  12.723   7.500  0.2292 -0.1478 -0.1800
  588PNCE   C5B 5315   4.372  12.375   7.378 -0.0164  0.1671  0.1662
  588PNCE   C6B 5316   4.277  11.954   7.179  0.1097  0.0274 -0.0706
  589CHOL   ROH 5317  13.604  11.687   8.255  0.1390 -0.0019 -0.0011
  589CHOL    R1 5318  13.500  11.711   7.993  0.1958  0.2650 -0.0031
  589CHOL    R2 5319  13.610  11.879   7.803  0.5328  0.1110  0.0456
  589CHOL    R3 5320  13.620  11.652   7.654  0.1099  0.1209 -0.0085
  589CHOL    R4 5321  13.665  11.868   7.462  0.5835  0.0841  0.0548
  589CHOL    R5 5322  13.514  11.711   7.448  0.2684  0.3834 -0.0163
  589CHOL    C1 5323  13.706  11.649   7.124  0.2158  0.0776  0.0092
  589CHOL    C2 5324  13.394  11.788   6.954 -0.0810  0.0886 -0.1806
  590XCA    COO 5325   3.725  13.969   8.262  0.0146 -0.3833  0.2059
  590XCA     C1 5326   3.830  13.872   7.809  0.1109  0.0960  0.1605
  590XCA     C2 5327   4.147  13.797   7.583 -0.0112  0.2007  0.3699
  590XCA     C3 5328   4.457  13.528   7.231  0.1859 -0.3511 -0.1744
  590XCA     C4 5329   4.737  13.187   7.215 -0.1230 -0.0759 -0.4772
  590XCA     C5 5330   5.059  12.930   7.104  0.2544 -0.1025  0.3644
  590XCA     C6 5331   4.993  12.523   6.766 -0.5429  0.1625  0.0759
  591CHOL   ROH 5332   1.854  13.032   8.531 -0.0045 -0.0361  0.0589
  591CHOL    R1 5333   1.860  12.952   8.260 -0.0044 -0.0098  0.0507
  591CHOL    R2 5334   1.768  12.706   8.175 -0.0043 -0.0029  0.0260
  591CHOL    R3 5335   1.617  12.857   8.006 -0.0047  0.0143  0.0424
  591CHOL    R4 5336   1.660  12.606   7.862 -0.1888 -0.0526  0.1047
  591CHOL    R5 5337   1.702  12.806   7.788 -0.1241 -0.0975  0.0216
  591CHOL    C1 5338   1.456  12.689   7.522 -0.2966 -0.0654  0.1659
  591CHOL    C2 5339   1.456  12.629   7.026 -0.2405 -0.0174  0.1978
  592CHOL   ROH 5340  11.414   4.893   5.767  0.3123 -0.2583  0.0194
  592CHOL    R1 5341  11.330   4.623   5.757  0.2823 -0.2468 -0.0683
  592CHOL    R2 5342  11.067   4.547   5.796  0.3107 -0.2500  0.1378
  592CHOL    R3 5343  11.101   4.424   5.556  0.0721 -0.1024  0.0259
  592CHOL    R4 5344  10.920   4.248   5.705  0.2307 -0.2004  0.1060
  592CHOL    R5 5345  11.107   4.191   5.609  0.1374 -0.1348 -0.1213
  592CHOL    C1 5346  10.865   3.959   5.427 -0.0398 -0.0330 -0.0175
  592CHOL    C2 5347  10.689   3.780   5.119  0.3078  0.0569  0.0728
  593CHOL   ROH 5348   8.507   1.335   7.435  0.0093  0.1255 -0.2396
  593CHOL    R1 5349   8.641   1.087   7.465 -0.0902  0.0835 -0.1402
  593CHOL    R2 5350   8.652   0.898   7.264  0.0630  0.1134 -0.1595
  593CHOL    R3 5351   8.920   0.916   7.306  0.0282  0.0309  0.1185
  593CHOL    R4 5352   8.884   0.660   7.168  0.1310  0.2406 -0.3157
  593CHOL    R5 5353   8.988   0.692   7.357 -0.0398 -0.0579 -0.1636
  593CHOL    C1 5354   9.270   0.539   7.151  0.1381  0.2373 -0.1458
  593CHOL    C2 5355   9.322   0.092   7.194 -0.1199 -0.1677 -0.2001
  594CHOL   ROH 5356  11.416  15.792   5.405  0.1020  0.0810  0.0403
  594CHOL    R1 5357  11.402  15.516   5.466 -0.1148  0.0758 -0.0275
  594CHOL    R2 5358  11.600  15.384   5.606 -0.1413 -0.1474 -0.1994
  594CHOL    R3 5359  11.394  15.311   5.767 -0.1012 -0.0007 -0.0780
  594CHOL    R4 5360  11.632  15.196   5.894 -0.0998 -0.1601 -0.2116
  594CHOL    R5 5361  11.449  15.089   5.838 -0.2085 -0.0394 -0.1051
  594CHOL    C1 5362  11.456  15.018   6.213 -0.0380 -0.0298 -0.1046
  594CHOL    C2 5363  11.673  14.930   6.554  0.1266  0.0722  0.1460
  595CHOL   ROH 5364   6.769   9.298   5.003  0.3206  0.0570  0.0279
  595CHOL    R1 5365   6.607   9.158   5.188  0.0738  0.2706 -0.0216
  595CHOL    R2 5366   6.687   8.922   5.308 -0.3665  0.0313 -0.1707
  595CHOL    R3 5367   6.629   9.057   5.537 -0.0516  0.0244 -0.0827
  595CHOL    R4 5368   6.609   8.775   5.611 -0.3542  0.0219 -0.1724
  595CHOL    R5 5369   6.457   8.928   5.641 -0.1468  0.2017 -0.0187
  595CHOL    C1 5370   6.509   8.816   6.002 -0.0515  0.0099 -0.0907
  595CHOL    C2 5371   6.495   8.878   6.361 -0.0201  0.1868 -0.1295
  596CHOL   ROH 5372  13.478   8.454   7.746 -0.0297 -0.0575  0.0672
  596CHOL    R1 5373  13.613   8.677   7.637 -0.0699 -0.0986 -0.0701
  596CHOL    R2 5374  13.883   8.722   7.678 -0.0992  0.0350 -0.0029
  596CHOL    R3 5375  13.890   8.732   7.406 -0.0013 -0.1954 -0.0107
  596CHOL    R4 5376  14.094   8.924   7.493 -0.2458  0.1053 -0.0944
  596CHOL    R5 5377  13.929   8.963   7.356 -0.2348 -0.1945 -0.1974
  596CHOL    C1 5378  14.223   9.050   7.130 -0.2392 -0.0699 -0.1551
  596CHOL    C2 5379  14.480   9.253   7.067  0.0980 -0.3274 -0.0929
  597PNCE   AM1 5380   6.028  13.691   9.009  0.2862  0.4928  0.1248
  597PNCE   AM2 5381   6.022  13.996   9.177  0.1794 -0.0668 -0.0075
  597PNCE   T1A 5382   5.680  13.548   8.897  0.0809  0.0484  0.2512
  597PNCE   C2A 5383   5.263  13.672   8.916  0.2162  0.0061  0.1616
  597PNCE   C3A 5384   4.912  13.884   8.642 -0.3311 -0.1723 -0.1692
  597PNCE   C1B 5385   6.313  14.014   8.711  0.0937 -0.0434  0.0051
  597PNCE   C2B 5386   6.582  14.050   8.183  0.2400  0.1803 -0.2737
  597PNCE   C3B 5387   6.454  14.096   7.734 -0.0087  0.1396 -0.0740
  597PNCE   D4B 5388   6.428  13.948   7.345  0.2536 -0.1101 -0.2206
  597PNCE   C5B 5389   5.950  13.949   7.117  0.1718 -0.0179 -0.0634
  597PNCE   C6B 5390   5.723  14.007   6.689 -0.2258 -0.0976 -0.0560
  598XCA    COO 5391   2.121  12.474   4.609 -0.1752 -0.0444 -0.2476
  598XCA     C1 5392   2.504  12.549   4.868  0.0061  0.0808 -0.0720
  598XCA     C2 5393   2.846  12.345   5.019 -0.1330  0.1158 -0.0457
  598XCA     C3 5394   2.984  12.083   5.384 -0.1570 -0.0615 -0.3900
  598XCA     C4 5395   3.048  11.873   5.782  0.1187 -0.1062  0.0201
  598XCA     C5 5396   2.917  11.937   6.206 -0.0145  0.1983 -0.0610
  598XCA     C6 5397   2.930  11.928   6.583  0.1705 -0.0536 -0.2588
  599CHOL   ROH 5398   6.726   4.453   4.737 -0.4437 -0.0332 -0.0065
  599CHOL    R1 5399   6.906   4.501   4.950 -0.3731 -0.1807 -0.0307
  599CHOL    R2 5400   7.034   4.743   4.985 -0.0748 -0.3178 -0.1144
  599CHOL    R3 5401   6.925   4.728   5.234 -0.0872 -0.1083 -0.1063
  599CHOL    R4 5402   7.162   4.895   5.268 -0.0222 -0.1937 -0.2047
  599CHOL    R5 5403   7.112   4.716   5.381 -0.1025 -0.0948 -0.0917
  599CHOL    C1 5404   7.134   4.970   5.665 -0.0033  0.0753 -0.2496
  599CHOL    C2 5405   7.274   4.988   6.079  0.2378 -0.1009  0.1382
  600PNCE   AM1 5406  11.874   5.744   7.159 -0.3143  0.4643  0.0833
  600PNCE   AM2 5407  11.897   5.633   6.883 -0.2030  0.3311 -0.1136
  600PNCE   T1A 5408  12.320   5.445   6.948 -0.1867  0.1519 -0.0966
  600PNCE   C2A 5409  12.357   4.985   6.819 -0.0986 -0.0112 -0.2109
  600PNCE   C3A 5410  12.664   4.838   7.112 -0.0424  0.1089  0.1148
  600PNCE   C1B 5411  11.902   5.220   6.664 -0.0024 -0.1791 -0.0533
  600PNCE   C2B 5412  11.736   5.149   6.287 -0.1098  0.0812  0.2652
  600PNCE   C3B 5413  11.813   4.988   5.994  0.0463 -0.1037  0.3876
  600PNCE   D4B 5414  11.795   5.109   5.589 -0.1184 -0.3755  0.2921
  600PNCE   C5B 5415  11.890   5.559   5.508 -0.3283  0.0849 -0.0754
  600PNCE   C6B 5416  12.225   5.801   5.524 -0.0511  0.2326 -0.1511
  601XCA    COO 5417   9.862  13.651   8.611 -0.0320 -0.0944  0.2024
  601XCA     C1 5418   9.635  13.609   8.220 -0.0420 -0.0985 -0.0130
  601XCA     C2 5419   9.324  13.360   8.162 -0.2597  0.2272 -0.1561
  601XCA     C3 5420   9.199  12.998   7.852 -0.1979  0.0010 -0.0231
  601XCA     C4 5421   9.366  12.793   7.630 -0.0927  0.1809 -0.1155
  601XCA     C5 5422   9.491  12.782   7.208  0.4149 -0.0289  0.0743
  601XCA     C6 5423   9.773  12.887   6.859  0.0263 -0.0673 -0.1640
  602CHOL   ROH 5424  15.491   2.659   8.172 -0.0608  0.2267  0.0121
  602CHOL    R1 5425  15.608   2.720   7.922 -0.0562  0.1379 -0.0073
  602CHOL    R2 5426  15.857   2.627   7.848 -0.0607  0.1058  0.0284
  602CHOL    R3 5427  15.723   2.534   7.631 -0.0581  0.0365  0.0554
  602CHOL    R4 5428  15.996   2.433   7.597  0.0057  0.2157 -0.0212
  602CHOL    R5 5429  15.881   2.548   7.452 -0.1087  0.1562  0.0157
  602CHOL    C1 5430  15.950   2.234   7.248  0.0467  0.2147 -0.0247
  602CHOL    C2 5431  15.848   2.038   7.003 -0.0106 -0.1762 -0.2472
  603PNCE   AM1 5432   8.013   4.924   8.119 -0.0195  0.0526  0.0146
  603PNCE   AM2 5433   8.197   5.140   8.316 -0.1671 -0.3656  0.0474
  603PNCE   T1A 5434   8.020   4.581   7.778 -0.2710 -0.0807  0.3797
  603PNCE   C2A 5435   8.269   4.367   7.461  0.1473 -0.2306 -0.1715
  603PNCE   C3A 5436   8.401   4.167   7.069  0.1262 -0.3618  0.0199
  603PNCE   C1B 5437   8.313   5.191   7.852  0.1576 -0.1190 -0.0746
  603PNCE   C2B 5438   8.301   5.037   7.498  0.0608 -0.0781  0.0383
  603PNCE   C3B 5439   8.332   4.897   7.066 -0.1633 -0.1722 -0.0616
  603PNCE   D4B 5440   8.663   4.837   6.700  0.1340  0.2046  0.0451
  603PNCE   C5B 5441   8.546   5.049   6.406  0.1265 -0.1566 -0.0052
  603PNCE   C6B 5442   8.480   5.318   5.978  0.1092  0.0211  0.3115
  604XCA    COO 5443  10.680   2.501   4.988 -0.2072  0.1901  0.1614
  604XCA     C1 5444  10.793   2.343   5.352 -0.0755  0.0739 -0.1093
  604XCA     C2 5445  10.782   2.336   5.797  0.1450 -0.2513  0.1137
  604XCA     C3 5446  10.835   2.445   6.109 -0.0161 -0.0849 -0.2203
  604XCA     C4 5447  10.975   2.884   6.224  0.0181  0.1799 -0.0922
  604XCA     C5 5448  11.090   3.173   6.482  0.3452 -0.4634 -0.0988
  604XCA     C6 5449  11.416   2.998   6.754  0.0358 -0.6529  0.0076
  605PNCE   AM1 5450   1.107  15.358   8.338  0.2999 -0.2472  0.2653
  605PNCE   AM2 5451   0.953  15.063   8.311 -0.0436  0.2194  0.2086
  605PNCE   T1A 5452   1.096  15.604   7.896 -0.2749  0.1875  0.1064
  605PNCE   C2A 5453   1.159  15.692   7.417  0.2675 -0.0759 -0.1634
  605PNCE   C3A 5454   1.036  16.039   7.246  0.0801  0.0269  0.2822
  605PNCE   C1B 5455   1.362  15.066   7.926  0.0338  0.1647  0.0371
  605PNCE   C2B 5456   1.309  15.237   7.537 -0.4863 -0.2794  0.0507
  605PNCE   C3B 5457   1.096  15.199   7.144 -0.0580 -0.2078 -0.0072
  605PNCE   D4B 5458   0.855  15.005   6.848 -0.1307 -0.0367  0.0199
  605PNCE   C5B 5459   0.990  14.660   6.843 -0.0841  0.0740 -0.0833
  605PNCE   C6B 5460   1.292  14.385   6.848 -0.1337  0.2639 -0.1710
  606CHOL   ROH 5461  14.352  11.053   4.641  0.0169  0.0050 -0.0549
  606CHOL    R1 5462  14.516  10.999   4.865  0.0100 -0.0410 -0.0607
  606CHOL    R2 5463  14.519  11.160   5.090  0.1156  0.0005 -0.0896
  606CHOL    R3 5464  14.467  10.925   5.218  0.0029  0.0500 -0.0429
  606CHOL    R4 5465  14.551  11.110   5.430 -0.1135  0.1067 -0.0507
  606CHOL    R5 5466  14.635  10.913   5.388 -0.1111  0.0834  0.0712
  606CHOL    C1 5467  14.521  10.862   5.749 -0.3527  0.2151  0.0158
  606CHOL    C2 5468  14.872  11.125   5.908  0.0805  0.1303  0.2987
  607XCA    COO 5469   2.948   5.871   8.945 -0.1342  0.1355 -0.1696
  607XCA     C1 5470   2.702   5.858   8.446  0.0684 -0.1553 -0.4095
  607XCA     C2 5471   2.911   6.012   8.088  0.0958  0.2096  0.1155
  607XCA     C3 5472   3.104   5.859   7.737 -0.0543  0.1368  0.1139
  607XCA     C4 5473   3.473   5.661   7.452  0.0446  0.1395 -0.1379
  607XCA     C5 5474   3.817   5.827   7.283 -0.1932 -0.0952  0.0144
  607XCA     C6 5475   4.260   5.952   7.024 -0.2992 -0.1601 -0.0291
  608XCA    COO 5476  10.043  14.695   6.679  0.3466  0.2042 -0.0309
  608XCA     C1 5477   9.534  14.719   6.618  0.0994 -0.1046 -0.1685
  608XCA     C2 5478   9.250  14.981   6.774  0.1861 -0.2336 -0.1541
  608XCA     C3 5479   9.035  15.160   7.043  0.0976 -0.3867 -0.2845
  608XCA     C4 5480   8.787  15.481   6.994 -0.1384 -0.1774  0.0194
  608XCA     C5 5481   8.875  15.940   6.833  0.0547  0.0012  0.1834
  608XCA     C6 5482   8.954  16.407   6.749 -0.3295  0.2825 -0.0212
  609XCA    COO 5483   4.219  15.398   8.939 -0.0357  0.0870  0.0735
  609XCA     C1 5484   3.928  15.622   8.727  0.1567  0.1177 -0.1512
  609XCA     C2 5485   4.124  15.799   8.383  0.2568  0.0401  0.1481
  609XCA     C3 5486   4.142  15.799   7.831  0.0351  0.0642  0.1528
  609XCA     C4 5487   4.094  15.727   7.417  0.0746 -0.0895 -0.2183
  609XCA     C5 5488   4.188  15.832   7.035  0.0558  0.0214 -0.0946
  609XCA     C6 5489   4.335  16.211   6.793 -0.0785  0.0448  0.3094
  610CHOL   ROH 5490   1.430  13.342   8.420  0.2466 -0.0142 -0.0253
  610CHOL    R1 5491   1.431  13.110   8.258  0.0586 -0.0477  0.0187
  610CHOL    R2 5492   1.218  12.935   8.248 -0.0843  0.1192  0.0550
  610CHOL    R3 5493   1.235  12.981   7.980 -0.0502  0.0569  0.0467
  610CHOL    R4 5494   1.015  12.788   8.009 -0.1278  0.1513  0.0724
  610CHOL    R5 5495   1.190  12.768   7.881 -0.1292  0.0550  0.0877
  610CHOL    C1 5496   0.913  12.745   7.619 -0.1211  0.1115  0.0748
  610CHOL    C2 5497   1.054  12.705   7.291 -0.0708  0.2566 -0.2850
  611CHOL   ROH 5498  15.056  12.333   4.902  0.1557 -0.1047 -0.0204
  611CHOL    R1 5499  15.119  12.191   5.138 -0.0003  0.0043  0.0893
  611CHOL    R2 5500  15.376  12.110   5.200 -0.0748 -0.1728  0.1821
  611CHOL    R3 5501  15.328  12.244   5.432  0.0018  0.0316  0.0825
  611CHOL    R4 5502  15.578  12.098   5.479 -0.0082  0.0367  0.1447
  611CHOL    R5 5503  15.399  12.091   5.603  0.0219  0.1668  0.1953
  611CHOL    C1 5504  15.652  12.216   5.860  0.1027  0.3505  0.0295
  611CHOL    C2 5505  15.557  12.134   6.331  0.1980  0.0685 -0.4636
  612CHOL   ROH 5506   7.805  11.527   4.902  0.2528 -0.1654  0.0787
  612CHOL    R1 5507   7.702  11.640   5.140  0.1513 -0.0710 -0.0082
  612CHOL    R2 5508   7.481  11.538   5.271  0.0898 -0.0158 -0.0633
  612CHOL    R3 5509   7.650  11.531   5.483 -0.0004  0.0604  0.0108
  612CHOL    R4 5510   7.384  11.555   5.602 -0.0613 -0.0828 -0.1041
  612CHOL    R5 5511   7.554  11.684   5.641 -0.1459  0.0017 -0.0223
  612CHOL    C1 5512   7.485  11.558   5.994 -0.2340 -0.0503 -0.0583
  612CHOL    C2 5513   7.361  11.437   6.249 -0.2746 -0.2044 -0.1663
  613CHOL   ROH 5514  13.684   0.643   8.653 -0.0107  0.0360  0.0124
  613CHOL    R1 5515  13.762   0.629   8.381 -0.1101 -0.1579 -0.0083
  613CHOL    R2 5516  13.580   0.637   8.173 -0.1700 -0.0591  0.0465
  613CHOL    R3 5517  13.736   0.843   8.088  0.0150 -0.2519 -0.0885
  613CHOL    R4 5518  13.665   0.697   7.844 -0.2095 -0.2814 -0.0057
  613CHOL    R5 5519  13.866   0.749   7.910 -0.1348 -0.4583 -0.0916
  613CHOL    C1 5520  13.861   0.925   7.571 -0.0589 -0.5917 -0.1628
  613CHOL    C2 5521  13.674   1.134   7.385  0.0683  0.1548 -0.2466
  614CHOL   ROH 5522  12.743   2.327   8.677 -0.0197 -0.0537  0.0041
  614CHOL    R1 5523  12.767   2.481   8.441 -0.0522 -0.1342 -0.0529
  614CHOL    R2 5524  12.922   2.402   8.227 -0.0448 -0.1874 -0.0330
  614CHOL    R3 5525  12.691   2.438   8.087 -0.0578 -0.2763 -0.0334
  614CHOL    R4 5526  12.897   2.394   7.882 -0.0411 -0.1428 -0.0340
  614CHOL    R5 5527  12.758   2.562   7.894 -0.1192 -0.2151 -0.0110
  614CHOL    C1 5528  12.665   2.423   7.550 -0.0511 -0.2002 -0.0349
  614CHOL    C2 5529  12.565   2.369   7.108  0.0416  0.0259 -0.0094
  615PNCE   AM1 5530   7.403  12.353   8.853  0.0828 -0.1575  0.0408
  615PNCE   AM2 5531   7.707  12.245   8.801 -0.2166  0.1176 -0.0002
  615PNCE   T1A 5532   7.171  12.308   8.467 -0.0824  0.1118  0.0936
  615PNCE   C2A 5533   7.313  12.443   8.005  0.1713  0.1736 -0.2195
  615PNCE   C3A 5534   7.300  12.547   7.568 -0.2464 -0.0590  0.1696
  615PNCE   C1B 5535   7.651  12.247   8.360 -0.1025 -0.0973 -0.2780
  615PNCE   C2B 5536   7.413  11.983   8.120 -0.2663 -0.1312 -0.0299
  615PNCE   C3B 5537   7.114  11.726   7.929  0.0388  0.3380 -0.1304
  615PNCE   D4B 5538   6.615  11.812   7.731 -0.0795 -0.4918  0.1874
  615PNCE   C5B 5539   6.504  11.497   7.482  0.2164 -0.2103  0.3648
  615PNCE   C6B 5540   6.791  11.090   7.324  0.4259 -0.1770  0.3973
  616CHOL   ROH 5541   6.523   6.983   8.005 -0.0757  0.2662  0.1840
  616CHOL    R1 5542   6.393   6.883   7.774 -0.0710  0.2488  0.1891
  616CHOL    R2 5543   6.245   7.043   7.606  0.0657  0.2680  0.0859
  616CHOL    R3 5544   6.410   6.941   7.415  0.0590  0.0978  0.1692
  616CHOL    R4 5545   6.199   7.079   7.265  0.1835  0.1749  0.0597
  616CHOL    R5 5546   6.263   6.871   7.240  0.0648  0.1250  0.1525
  616CHOL    C1 5547   6.328   7.004   6.888  0.2457 -0.0390  0.1226
  616CHOL    C2 5548   6.343   7.164   6.494  0.0147  0.0994  0.1005
  617CHOL   ROH 5549   7.969  12.603   8.106 -0.0499 -0.1378 -0.0776
  617CHOL    R1 5550   7.867  12.794   7.924  0.0293 -0.1720 -0.1576
  617CHOL    R2 5551   7.907  13.065   7.954 -0.0876 -0.1597 -0.1230
  617CHOL    R3 5552   8.004  13.047   7.701  0.1196 -0.1236 -0.0483
  617CHOL    R4 5553   7.932  13.330   7.733  0.0344 -0.1398 -0.0869
  617CHOL    R5 5554   7.866  13.196   7.574  0.1890 -0.1441 -0.1496
  617CHOL    C1 5555   8.038  13.466   7.367  0.3000 -0.0944  0.0044
  617CHOL    C2 5556   7.880  13.482   6.996 -0.0448 -0.3385 -0.1081
  618CHOL   ROH 5557   8.881  15.294   8.814  0.0919  0.4343 -0.1453
  618CHOL    R1 5558   8.913  15.238   8.538  0.1797  0.1286 -0.0767
  618CHOL    R2 5559   8.896  15.434   8.343 -0.0215 -0.1258 -0.3226
  618CHOL    R3 5560   9.141  15.339   8.273  0.0934  0.0579 -0.1789
  618CHOL    R4 5561   9.026  15.442   8.023  0.0633 -0.2361 -0.2913
  618CHOL    R5 5562   9.107  15.242   8.057  0.2490 -0.1365 -0.1192
  618CHOL    C1 5563   9.332  15.357   7.771  0.2205 -0.1278 -0.1381
  618CHOL    C2 5564   9.259  15.467   7.423  0.1512 -0.0654  0.3246
  619CHOL   ROH 5565   5.553  14.990   8.313  0.0761 -0.0185  0.0005
  619CHOL    R1 5566   5.451  14.838   8.098  0.0351 -0.0012  0.0070
  619CHOL    R2 5567   5.589  14.804   7.861 -0.0600  0.1168 -0.0704
  619CHOL    R3 5568   5.550  14.540   7.914  0.0697  0.0880 -0.1175
  619CHOL    R4 5569   5.637  14.548   7.634 -0.1641  0.1948 -0.1818
  619CHOL    R5 5570   5.458  14.452   7.711 -0.0667  0.1152 -0.0640
  619CHOL    C1 5571   5.629  14.151   7.551 -0.1030  0.2132 -0.2908
  619CHOL    C2 5572   5.472  13.854   7.396 -0.1103  0.0973  0.0435
  620PNCE   AM1 5573  13.281   7.865   7.388 -0.0072 -0.0835  0.2691
  620PNCE   AM2 5574  13.138   8.250   7.540  0.1846 -0.1957  0.0840
  620PNCE   T1A 5575  13.401   7.889   6.938 -0.1257  0.0225 -0.2991
  620PNCE   C2A 5576  13.792   7.853   6.677  0.0611 -0.2634 -0.1162
  620PNCE   C3A 5577  14.013   7.966   6.275 -0.0332 -0.4514  0.0793
  620PNCE   C1B 5578  13.495   8.370   7.259  0.0354 -0.0465  0.0202
  620PNCE   C2B 5579  13.689   8.293   6.885 -0.0031 -0.1288 -0.1043
  620PNCE   C3B 5580  13.493   8.219   6.530  0.0924  0.1907  0.1389
  620PNCE   D4B 5581  13.065   8.030   6.337  0.3135 -0.2534  0.0569
  620PNCE   C5B 5582  12.600   8.095   6.445  0.0237  0.4754 -0.1419
  620PNCE   C6B 5583  12.432   8.355   6.140 -0.1117  0.1920  0.2160
  621XCA    COO 5584  11.667  15.538   9.096 -0.1083 -0.0614  0.1432
  621XCA     C1 5585  11.998  15.774   8.951 -0.0483  0.0753  0.1869
  621XCA     C2 5586  12.080  15.975   8.620 -0.1844  0.2336 -0.0984
  621XCA     C3 5587  12.199  16.077   8.199 -0.0331  0.1389 -0.2186
  621XCA     C4 5588  12.035  16.181   7.745  0.0300  0.0489  0.1751
  621XCA     C5 5589  11.969  15.730   7.462 -0.2324  0.0193 -0.3122
  621XCA     C6 5590  12.214  15.429   7.394 -0.0374 -0.2661  0.1852
  622PNCE   AM1 5591   3.862  11.030   8.786 -0.1411 -0.4016  0.0326
  622PNCE   AM2 5592   3.879  10.740   8.749  0.2137 -0.2909  0.1153
  622PNCE   T1A 5593   4.047  11.073   8.298 -0.1237 -0.3022 -0.1327
  622PNCE   C2A 5594   4.119  10.997   7.907 -0.0950 -0.1340 -0.3542
  622PNCE   C3A 5595   4.328  10.809   7.579 -0.2347  0.1467 -0.1566
  622PNCE   C1B 5596   3.944  10.472   8.302 -0.0565  0.2575  0.0129
  622PNCE   C2B 5597   4.033  10.272   7.855 -0.1129  0.1519 -0.1345
  622PNCE   C3B 5598   4.228   9.946   7.541  0.4557  0.5119  0.3199
  622PNCE   D4B 5599   4.304   9.537   7.595 -0.0236  0.3461  0.0569
  622PNCE   C5B 5600   4.664   9.347   7.663  0.0777 -0.1948 -0.0645
  622PNCE   C6B 5601   4.965   9.201   7.621 -0.1251 -0.1901 -0.0985
  623CHOL   ROH 5602  13.256  10.786   8.183 -0.0444 -0.1607  0.0720
  623CHOL    R1 5603  13.349  10.665   7.945 -0.0296 -0.1090  0.0523
  623CHOL    R2 5604  13.179  10.577   7.745 -0.0175 -0.0858  0.0345
  623CHOL    R3 5605  13.333  10.737   7.588 -0.0271 -0.0455  0.0644
  623CHOL    R4 5606  13.198  10.558   7.401  0.0413 -0.0679  0.0359
  623CHOL    R5 5607  13.412  10.592   7.415  0.0323 -0.0218  0.0708
  623CHOL    C1 5608  13.354  10.696   7.053  0.0665 -0.0196  0.0648
  623CHOL    C2 5609  13.648  10.809   6.748  0.2131 -0.1400 -0.2107
  624XCA    COO 5610   3.567   4.709   5.048 -0.0281  0.0750  0.3126
  624XCA     C1 5611   3.626   4.753   5.506 -0.0978 -0.0606  0.1577
  624XCA     C2 5612   3.665   4.743   5.903  0.0621 -0.0654  0.1569
  624XCA     C3 5613   3.831   4.828   6.327  0.2372  0.1042  0.1953
  624XCA     C4 5614   3.893   4.494   6.568  0.0293 -0.1328 -0.0591
  624XCA     C5 5615   3.711   4.130   6.930 -0.5125  0.0066 -0.1807
  624XCA     C6 5616   3.539   3.790   6.920  0.3222 -0.0919  0.1112
  625XCA    COO 5617   8.132  11.897   5.010  0.4829 -0.3247 -0.0024
  625XCA     C1 5618   8.496  11.809   5.327  0.1003  0.1687  0.2506
  625XCA     C2 5619   8.479  12.024   5.619  0.1976 -0.3172 -0.2745
  625XCA     C3 5620   8.708  12.123   5.968  0.0500  0.1432 -0.3023
  625XCA     C4 5621   8.681  12.193   6.408  0.0846 -0.1500  0.0896
  625XCA     C5 5622   8.492  12.206   6.713  0.0954 -0.0569 -0.0155
  625XCA     C6 5623   8.372  12.378   6.951 -0.4913  0.1484 -0.2327
  626CHOL   ROH 5624  13.947   3.776   7.947  0.1065 -0.2850  0.2404
  626CHOL    R1 5625  13.819   3.572   7.799  0.0806 -0.1511  0.0743
  626CHOL    R2 5626  13.725   3.610   7.542  0.0424  0.0819  0.1206
  626CHOL    R3 5627  13.879   3.394   7.487  0.0310  0.1269 -0.0972
  626CHOL    R4 5628  13.696   3.414   7.259 -0.3066  0.0664  0.1623
  626CHOL    R5 5629  13.729   3.238   7.384 -0.0739  0.0794  0.1218
  626CHOL    C1 5630  13.825   3.096   7.043 -0.5205  0.0996 -0.0178
  626CHOL    C2 5631  13.790   2.972   6.554 -0.1394 -0.1871  0.1284
  627CHOL   ROH 5632  11.017  15.410   5.620  0.0216 -0.2231  0.1345
  627CHOL    R1 5633  10.946  15.418   5.894 -0.0260 -0.0726  0.1184
  627CHOL    R2 5634  11.113  15.326   6.094 -0.0911 -0.0289  0.1904
  627CHOL    R3 5635  11.074  15.575   6.195 -0.0345  0.0309  0.0693
  627CHOL    R4 5636  11.135  15.409   6.429 -0.0244  0.1345  0.1469
  627CHOL    R5 5637  10.961  15.538   6.403 -0.0096  0.1518  0.1080
  627CHOL    C1 5638  11.110  15.691   6.719  0.0676  0.2857  0.0080
  627CHOL    C2 5639  10.984  15.374   6.878  0.2880  0.1960  0.1604
  628CHOL   ROH 5640   0.895   7.290   4.484 -0.3360 -0.0719 -0.1927
  628CHOL    R1 5641   0.646   7.223   4.601 -0.2853  0.0011 -0.0371
  628CHOL    R2 5642   0.619   7.164   4.869 -0.1307 -0.0318 -0.0243
  628CHOL    R3 5643   0.430   7.360   4.860 -0.0625  0.0404  0.1302
  628CHOL    R4 5644   0.380   7.218   5.112 -0.2335 -0.2732 -0.0710
  628CHOL    R5 5645   0.235   7.258   4.954 -0.1417 -0.0232 -0.0979
  628CHOL    C1 5646   0.063   7.433   5.246 -0.2293 -0.3460  0.0467
  628CHOL    C2 5647   0.015   7.144   5.502 -0.2578  0.0153  0.2079
  629XCA    COO 5648  14.755   4.432   4.540 -0.0925  0.3677 -0.0386
  629XCA     C1 5649  14.410   4.363   4.736  0.0273  0.0975 -0.2115
  629XCA     C2 5650  14.058   4.260   4.995 -0.2340 -0.0816 -0.1651
  629XCA     C3 5651  13.650   4.188   5.234  0.1932  0.3664 -0.3615
  629XCA     C4 5652  13.272   4.068   5.113 -0.1912  0.2879  0.1927
  629XCA     C5 5653  12.921   4.139   5.316  0.0723 -0.3072  0.0994
  629XCA     C6 5654  12.638   4.379   5.156  0.0486  0.0461  0.1336
  630PNCE   AM1 5655   1.622   5.503   8.500  0.0659  0.0566  0.3048
  630PNCE   AM2 5656   1.375   5.420   8.705  0.2773  0.1848 -0.0569
  630PNCE   T1A 5657   1.999   5.774   8.436  0.1332 -0.2115 -0.1136
  630PNCE   C2A 5658   2.225   6.047   8.152 -0.1603 -0.4431 -0.2134
  630PNCE   C3A 5659   2.159   6.161   7.734 -0.0766  0.2369 -0.0199
  630PNCE   C1B 5660   1.419   5.109   8.331  0.1236 -0.0199  0.0778
  630PNCE   C2B 5661   1.361   5.279   7.950 -0.1408  0.1583 -0.1424
  630PNCE   C3B 5662   1.622   5.480   7.714 -0.3190 -0.1432 -0.1179
  630PNCE   D4B 5663   1.627   5.481   7.270 -0.2964 -0.2960 -0.1542
  630PNCE   C5B 5664   1.670   5.758   6.969  0.2206  0.3124  0.3316
  630PNCE   C6B 5665   1.701   6.070   6.744 -0.3614  0.0833  0.0567
  631PNCE   AM1 5666   9.645   4.265   8.403  0.0765  0.1114 -0.0516
  631PNCE   AM2 5667   9.405   4.295   8.299  0.2821 -0.1341  0.1050
  631PNCE   T1A 5668   9.820   4.052   8.175  0.0488 -0.1076  0.0523
  631PNCE   C2A 5669  10.178   3.925   7.853 -0.0406  0.0144  0.3380
  631PNCE   C3A 5670  10.454   3.626   7.720 -0.1219 -0.1618  0.4477
  631PNCE   C1B 5671   9.328   3.855   8.081  0.1226  0.0719  0.0485
  631PNCE   C2B 5672   9.193   3.494   7.920  0.0890  0.0245 -0.3586
  631PNCE   C3B 5673   8.996   3.132   7.733  0.0087 -0.4343  0.0640
  631PNCE   D4B 5674   8.920   2.871   7.804 -0.4117  0.0338  0.2188
  631PNCE   C5B 5675   9.193   2.640   7.927 -0.2038 -0.1469 -0.2373
  631PNCE   C6B 5676   9.192   2.498   8.312 -0.0027  0.2766  0.3922
  632CHOL   ROH 5677   5.712   6.670   4.461 -0.1348  0.1405  0.0873
  632CHOL    R1 5678   5.765   6.524   4.697 -0.0893  0.0851  0.0438
  632CHOL    R2 5679   6.006   6.542   4.832 -0.0429  0.0175 -0.0223
  632CHOL    R3 5680   5.846   6.601   5.043  0.0274  0.0067  0.0335
  632CHOL    R4 5681   6.080   6.469   5.162  0.0381 -0.0359 -0.0520
  632CHOL    R5 5682   5.871   6.415   5.191  0.0441 -0.0128  0.0010
  632CHOL    C1 5683   5.972   6.484   5.552  0.1511 -0.0770 -0.0168
  632CHOL    C2 5684   5.867   6.499   5.854  0.0688 -0.0136  0.1638
  633CHOL   ROH 5685  15.175   0.928   8.158  0.1189 -0.1799  0.0495
  633CHOL    R1 5686  15.306   0.864   7.915  0.1105 -0.1261  0.0302
  633CHOL    R2 5687  15.267   0.624   7.784  0.0615 -0.0746 -0.0532
  633CHOL    R3 5688  15.207   0.786   7.574  0.1004  0.0107  0.0015
  633CHOL    R4 5689  15.219   0.516   7.459 -0.2501  0.0076 -0.0379
  633CHOL    R5 5690  15.329   0.692   7.390 -0.1085 -0.0975 -0.0841
  633CHOL    C1 5691  15.136   0.605   7.073 -0.3951  0.1355  0.0223
  633CHOL    C2 5692  14.822   0.408   6.956 -0.0431  0.1847 -0.1457
  634CHOL   ROH 5693   4.679   8.254   7.477 -0.0562 -0.0849 -0.1250
  634CHOL    R1 5694   4.726   8.002   7.357  0.0892 -0.1005 -0.0355
  634CHOL    R2 5695   4.692   7.957   7.086  0.0286 -0.2372  0.0001
  634CHOL    R3 5696   4.948   7.868   7.101  0.1008 -0.0470 -0.0565
  634CHOL    R4 5697   4.827   7.714   6.882  0.1558 -0.1301 -0.0455
  634CHOL    R5 5698   4.931   7.633   7.056  0.2565 -0.0634 -0.0642
  634CHOL    C1 5699   5.147   7.488   6.777  0.2975  0.1109 -0.1252
  634CHOL    C2 5700   5.270   7.268   6.556  0.1416  0.1367 -0.1341
  635PNCE   AM1 5701  10.907  10.466   4.566 -0.2117 -0.1411  0.1582
  635PNCE   AM2 5702  11.192  10.521   4.445  0.2447 -0.0890 -0.2414
  635PNCE   T1A 5703  10.668  10.212   4.957 -0.2311 -0.1432  0.1752
  635PNCE   C2A 5704  10.709  10.202   5.416 -0.0868  0.3091 -0.1436
  635PNCE   C3A 5705  10.835  10.117   5.860  0.0280  0.0809 -0.2618
  635PNCE   C1B 5706  11.216  10.466   4.968  0.4796  0.0534 -0.0857
  635PNCE   C2B 5707  11.174  10.209   5.373  0.1049  0.0543  0.0658
  635PNCE   C3B 5708  11.133   9.781   5.553  0.0579 -0.0448  0.2836
  635PNCE   D4B 5709  11.051   9.336   5.456  0.0298 -0.0120  0.1619
  635PNCE   C5B 5710  11.110   9.059   5.846  0.2567  0.0590  0.2907
  635PNCE   C6B 5711  11.223   8.676   6.079  0.1323 -0.1556  0.0931
  636XCA    COO 5712  11.959  14.705   8.654  0.0141 -0.1422  0.1040
  636XCA     C1 5713  11.624  14.593   8.334  0.1833  0.1266  0.2787
  636XCA     C2 5714  11.429  14.378   8.059  0.0543  0.0238 -0.3515
  636XCA     C3 5715  11.125  14.266   7.793 -0.3448 -0.2885 -0.1969
  636XCA     C4 5716  10.912  14.212   7.413 -0.1029 -0.0741  0.2716
  636XCA     C5 5717  10.645  14.376   7.151 -0.0249  0.1190 -0.1032
  636XCA     C6 5718  10.239  14.677   7.196  0.0018  0.3797 -0.0479
  637PNCE   AM1 5719   5.074   5.041   4.661 -0.0671  0.0685  0.1427
  637PNCE   AM2 5720   5.025   5.386   4.583  0.2232 -0.2879 -0.2415
  637PNCE   T1A 5721   4.768   5.121   4.928 -0.2121  0.0078 -0.0649
  637PNCE   C2A 5722   4.434   5.134   5.242  0.1186  0.2614  0.1073
  637PNCE   C3A 5723   3.931   5.156   5.447  0.0146 -0.1633 -0.0110
  637PNCE   C1B 5724   5.130   5.532   4.989  0.0158  0.1484  0.0661
  637PNCE   C2B 5725   5.352   5.544   5.396  0.1543  0.0652  0.0113
  637PNCE   C3B 5726   5.289   5.321   5.677  0.0776 -0.0679  0.4737
  637PNCE   D4B 5727   5.283   5.128   6.054  0.4230  0.0212  0.0671
  637PNCE   C5B 5728   4.921   5.090   6.346 -0.3916  0.1055 -0.0825
  637PNCE   C6B 5729   4.923   4.775   6.695  0.0100  0.2203 -0.2017
  638CHOL   ROH 5730   4.616   2.925   7.314 -0.1165  0.0487 -0.0126
  638CHOL    R1 5731   4.479   2.681   7.358  0.0315 -0.0572 -0.1236
  638CHOL    R2 5732   4.205   2.668   7.386  0.0539 -0.2112  0.0657
  638CHOL    R3 5733   4.225   2.485   7.186 -0.0003 -0.0255 -0.1114
  638CHOL    R4 5734   3.997   2.394   7.346  0.1460 -0.2654 -0.0419
  638CHOL    R5 5735   4.172   2.276   7.289  0.1585 -0.1420 -0.2627
  638CHOL    C1 5736   3.896   2.064   7.134  0.1489 -0.1226 -0.2708
  638CHOL    C2 5737   3.524   2.040   6.951 -0.1530  0.0732 -0.1714
  639XCA    COO 5738  12.123  11.450   8.424  0.1548  0.2380 -0.0396
  639XCA     C1 5739  12.030  11.526   7.931  0.1651 -0.1451 -0.0399
  639XCA     C2 5740  11.765  11.518   7.515 -0.3158  0.0073 -0.4288
  639XCA     C3 5741  11.626  11.651   7.079 -0.1632  0.0760 -0.0113
  639XCA     C4 5742  11.492  11.586   6.669 -0.0539  0.0937  0.0357
  639XCA     C5 5743  11.398  11.150   6.554 -0.0255  0.1536  0.0641
  639XCA     C6 5744  11.406  10.942   6.108  0.0277 -0.2672  0.1526
  640XCA    COO 5745   7.954  14.700   4.965 -0.1171  0.1874 -0.0926
  640XCA     C1 5746   7.913  14.931   5.398 -0.1001  0.2959  0.0504
  640XCA     C2 5747   7.845  14.990   5.795  0.2639  0.2017  0.3291
  640XCA     C3 5748   7.792  14.749   6.192 -0.0614  0.3623  0.1299
  640XCA     C4 5749   7.726  14.588   6.477 -0.0493  0.0568 -0.5911
  640XCA     C5 5750   7.800  14.320   6.842  0.1588  0.1179 -0.0928
  640XCA     C6 5751   8.112  13.922   7.152  0.0950 -0.0027 -0.1990
  641XCA    COO 5752   2.654   9.608   4.404  0.3492  0.0226 -0.0265
  641XCA     C1 5753   2.805   9.786   4.818 -0.3397 -0.1994 -0.1957
  641XCA     C2 5754   2.755  10.007   5.324 -0.4310  0.1018 -0.1847
  641XCA     C3 5755   2.622  10.012   5.700 -0.0934  0.0467 -0.0193
  641XCA     C4 5756   2.539  10.294   6.102  0.0264 -0.1769  0.0134
  641XCA     C5 5757   2.567  10.594   6.475  0.0182  0.0568  0.2909
  641XCA     C6 5758   2.642  10.916   6.687 -0.2525 -0.0260 -0.3554
  642PNCE   AM1 5759  11.597  11.795   5.234 -0.1264 -0.0160 -0.1694
  642PNCE   AM2 5760  11.860  11.706   5.465 -0.1472 -0.1595  0.0438
  642PNCE   T1A 5761  11.321  12.085   5.267 -0.3821 -0.0527  0.0136
  642PNCE   C2A 5762  11.014  12.409   5.302 -0.0324  0.0257  0.0406
  642PNCE   C3A 5763  10.919  12.894   5.348  0.0048 -0.1318  0.2353
  642PNCE   C1B 5764  11.742  11.659   5.870  0.3914  0.3289  0.1899
  642PNCE   C2B 5765  11.815  11.755   6.308  0.4181  0.0449 -0.0300
  642PNCE   C3B 5766  12.119  11.691   6.717  0.2185 -0.2039 -0.0055
  642PNCE   D4B 5767  12.164  11.689   7.114  0.0068 -0.2269 -0.2742
  642PNCE   C5B 5768  12.166  11.308   7.226 -0.0721  0.1016  0.2519
  642PNCE   C6B 5769  12.383  10.956   7.294  0.1586  0.1946 -0.3768
  643CHOL   ROH 5770  11.002   7.211   7.316 -0.0848  0.0233  0.0763
  643CHOL    R1 5771  10.863   7.249   7.073  0.0195 -0.0649  0.0027
  643CHOL    R2 5772  10.628   7.115   7.013  0.0720 -0.1210 -0.0691
  643CHOL    R3 5773  10.534   7.367   6.971  0.0436 -0.1489 -0.1804
  643CHOL    R4 5774  10.323   7.190   6.870 -0.0569 -0.2292  0.1445
  643CHOL    R5 5775  10.419   7.353   6.762 -0.1459 -0.3129 -0.0717
  643CHOL    C1 5776  10.056   7.470   6.748 -0.1586 -0.3186  0.1643
  643CHOL    C2 5777   9.655   7.499   6.850 -0.0629 -0.1553  0.0368
  644PNCE   AM1 5778   0.085  14.000   4.880  0.2147  0.1252 -0.2011
  644PNCE   AM2 5779   0.232  14.242   4.833  0.0974 -0.1214  0.1484
  644PNCE   T1A 5780   0.152  13.755   5.232  0.0738  0.0136  0.5691
  644PNCE   C2A 5781   0.005  13.505   5.505 -0.2479 -0.0937 -0.0660
  644PNCE   C3A 5782   0.055  13.383   5.880 -0.2662 -0.1695 -0.1091
  644PNCE   C1B 5783   0.128  14.204   5.343  0.0128 -0.1247  0.1880
  644PNCE   C2B 5784   0.269  14.379   5.765  0.0244  0.1049  0.2078
  644PNCE   C3B 5785   0.454  14.182   6.126  0.0940  0.0529 -0.2769
  644PNCE   D4B 5786   0.643  14.031   6.378  0.0848  0.1373 -0.2531
  644PNCE   C5B 5787   0.973  13.841   6.581 -0.1602 -0.3717 -0.2415
  644PNCE   C6B 5788   0.913  13.661   6.964  0.1181 -0.0006  0.0497
  645CHOL   ROH 5789   0.410   5.363   6.845 -0.1507 -0.0468 -0.0041
  645CHOL    R1 5790   0.532   5.432   6.599  0.0849 -0.1179  0.0879
  645CHOL    R2 5791   0.644   5.244   6.430 -0.0926 -0.2192  0.0662
  645CHOL    R3 5792   0.478   5.356   6.247  0.1581  0.1025  0.0302
  645CHOL    R4 5793   0.672   5.205   6.088 -0.0832 -0.2333  0.0700
  645CHOL    R5 5794   0.622   5.415   6.064  0.3081 -0.1410  0.0736
  645CHOL    C1 5795   0.532   5.287   5.716  0.1577  0.0606  0.0383
  645CHOL    C2 5796   0.452   5.187   5.332  0.1778  0.2157 -0.0198
  646PNCE   AM1 5797   9.415  14.614   5.277 -0.0121  0.0674 -0.0005
  646PNCE   AM2 5798   9.704  14.607   5.426  0.1033  0.0301  0.0264
  646PNCE   T1A 5799   9.145  14.351   5.568  0.0492 -0.2838  0.1963
  646PNCE   C2A 5800   8.929  14.278   5.972 -0.0626  0.0044  0.1118
  646PNCE   C3A 5801   8.953  14.050   6.273 -0.1456  0.4646  0.1313
  646PNCE   C1B 5802   9.827  14.604   5.794 -0.0444  0.0317 -0.0140
  646PNCE   C2B 5803   9.880  14.562   6.159 -0.4838  0.1477  0.0102
  646PNCE   C3B 5804   9.812  14.224   6.424 -0.2253  0.3570 -0.6148
  646PNCE   D4B 5805  10.075  13.909   6.558 -0.2276  0.0340  0.5977
  646PNCE   C5B 5806  10.254  13.749   6.250  0.2022 -0.0832 -0.0052
  646PNCE   C6B 5807  10.567  13.562   6.023  0.3991 -0.2262  0.0667
  647XCA    COO 5808   4.760  13.918   9.731  0.0245 -0.0692  0.1722
  647XCA     C1 5809   4.894  13.834   9.359  0.0581 -0.0952 -0.2985
  647XCA     C2 5810   4.565  13.802   9.069 -0.2129 -0.0607 -0.0534
  647XCA     C3 5811   4.426  13.669   8.617  0.2399 -0.0289 -0.0967
  647XCA     C4 5812   4.679  13.569   8.241  0.3520  0.3607  0.0423
  647XCA     C5 5813   4.659  13.687   7.807  0.0093 -0.0615 -0.3564
  647XCA     C6 5814   4.612  13.963   7.490  0.2048 -0.2167 -0.1130
  648CHOL   ROH 5815   4.534   1.197   8.368  0.1272  0.1625 -0.1098
  648CHOL    R1 5816   4.450   0.999   8.183 -0.1104  0.2764 -0.1268
  648CHOL    R2 5817   4.421   1.051   7.914  0.1975  0.2761 -0.1595
  648CHOL    R3 5818   4.589   0.838   7.888 -0.1845 -0.0606  0.0165
  648CHOL    R4 5819   4.506   0.901   7.614  0.4399  0.3107 -0.1114
  648CHOL    R5 5820   4.492   0.707   7.712 -0.1459  0.2578 -0.2550
  648CHOL    C1 5821   4.712   0.615   7.415  0.2223  0.0149  0.0819
  648CHOL    C2 5822   4.745   0.539   6.990 -0.2557 -0.1471 -0.2300
  649PNCE   AM1 5823   7.516   2.577   5.146 -0.2032  0.2560 -0.1941
  649PNCE   AM2 5824   7.484   2.265   5.406  0.0339  0.3421  0.1871
  649PNCE   T1A 5825   7.369   2.747   5.512 -0.2675 -0.1831 -0.1028
  649PNCE   C2A 5826   7.236   3.019   5.791  0.0228  0.0772  0.1939
  649PNCE   C3A 5827   7.062   3.327   6.079  0.2474  0.1926  0.2760
  649PNCE   C1B 5828   7.448   2.090   5.754 -0.0738 -0.2443  0.2718
  649PNCE   C2B 5829   7.374   2.236   6.192  0.0616  0.1710  0.1130
  649PNCE   C3B 5830   7.412   2.412   6.539 -0.0218 -0.1443 -0.1912
  649PNCE   D4B 5831   7.088   2.721   6.742  0.1754  0.0245  0.2733
  649PNCE   C5B 5832   7.115   3.206   6.882 -0.3697 -0.0870 -0.0652
  649PNCE   C6B 5833   7.175   3.483   7.141 -0.0629 -0.1940 -0.1304
  650CHOL   ROH 5834   1.333   9.149   4.805 -0.1720 -0.0608  0.1634
  650CHOL    R1 5835   1.386   9.132   5.083 -0.1107  0.0859  0.1608
  650CHOL    R2 5836   1.621   9.025   5.182 -0.2002 -0.0941  0.1652
  650CHOL    R3 5837   1.636   9.263   5.313  0.1007 -0.0133 -0.0047
  650CHOL    R4 5838   1.759   9.070   5.496 -0.3321 -0.1041  0.2264
  650CHOL    R5 5839   1.596   9.208   5.543 -0.1505  0.2079  0.0170
  650CHOL    C1 5840   1.854   9.320   5.801 -0.1264 -0.0342  0.1024
  650CHOL    C2 5841   2.247   9.453   5.937 -0.0283 -0.1102 -0.1594
  651PNCE   AM1 5842   0.812  10.799   4.395  0.1916 -0.1962  0.1735
  651PNCE   AM2 5843   0.934  11.079   4.233 -0.2024  0.0403 -0.0515
  651PNCE   T1A 5844   0.704  10.825   4.846  0.0739 -0.2071 -0.1115
  651PNCE   C2A 5845   0.891  10.579   5.274 -0.0013  0.0632  0.1045
  651PNCE   C3A 5846   1.061  10.597   5.629  0.2315 -0.0945  0.2159
  651PNCE   C1B 5847   1.018  11.195   4.648  0.1189 -0.0186  0.3273
  651PNCE   C2B 5848   1.188  11.083   5.022  0.2945 -0.2130  0.0851
  651PNCE   C3B 5849   1.228  11.111   5.472 -0.0667 -0.1536 -0.0753
  651PNCE   D4B 5850   1.240  11.156   5.869  0.0663 -0.0611 -0.1157
  651PNCE   C5B 5851   0.891  11.490   5.934 -0.2652 -0.0533  0.0993
  651PNCE   C6B 5852   0.523  11.648   6.125  0.0016 -0.1075  0.0336
  652PNCE   AM1 5853   0.550   2.467   5.387 -0.1309  0.0339 -0.1281
  652PNCE   AM2 5854   0.427   2.601   5.071  0.2382  0.1638  0.1009
  652PNCE   T1A 5855   0.738   2.708   5.640 -0.1826  0.1170 -0.4131
  652PNCE   C2A 5856   0.685   2.955   5.969  0.1230 -0.0759  0.4629
  652PNCE   C3A 5857   0.687   3.171   6.351 -0.0929  0.1583 -0.3130
  652PNCE   C1B 5858   0.140   2.715   5.425  0.0838  0.0574 -0.2944
  652PNCE   C2B 5859   0.227   2.770   5.800  0.0010  0.1484  0.0802
  652PNCE   C3B 5860   0.295   2.805   6.217 -0.3199 -0.1353 -0.2310
  652PNCE   D4B 5861   0.419   2.719   6.624 -0.3004  0.0364  0.1242
  652PNCE   C5B 5862   0.561   2.511   6.927 -0.0156  0.0636  0.1475
  652PNCE   C6B 5863   0.490   2.068   7.151 -0.3002  0.2968 -0.0699
  653PNCE   AM1 5864  10.479  14.317   5.086  0.1790  0.0463 -0.1864
  653PNCE   AM2 5865  10.408  13.950   4.912 -0.1815  0.0522 -0.1499
  653PNCE   T1A 5866  10.930  14.112   5.133 -0.2190 -0.5033  0.1659
  653PNCE   C2A 5867  11.133  13.816   5.338  0.2461 -0.0126 -0.1405
  653PNCE   C3A 5868  11.514  13.636   5.279 -0.0857 -0.3499  0.3270
  653PNCE   C1B 5869  10.609  13.792   5.257 -0.0443 -0.0108  0.2579
  653PNCE   C2B 5870  10.681  13.986   5.709  0.3063 -0.0589  0.1932
  653PNCE   C3B 5871  11.039  13.959   6.013  0.0288 -0.0253  0.1056
  653PNCE   D4B 5872  11.078  14.121   6.440  0.1445  0.0165 -0.4194
  653PNCE   C5B 5873  11.477  14.047   6.734 -0.0815 -0.4214  0.1604
  653PNCE   C6B 5874  11.855  14.322   6.695 -0.2067  0.0406 -0.0081
  654PNCE   AM1 5875  12.852  12.307   5.089 -0.4712 -0.0558  0.0468
  654PNCE   AM2 5876  12.525  12.341   5.046 -0.2950  0.2218  0.2865
  654PNCE   T1A 5877  12.929  12.713   5.170 -0.2298  0.0589  0.2028
  654PNCE   C2A 5878  12.653  13.087   5.277 -0.0530  0.1084 -0.0809
  654PNCE   C3A 5879  12.288  13.397   5.402  0.2566 -0.0451 -0.1049
  654PNCE   C1B 5880  12.421  12.628   5.426 -0.3221  0.0621 -0.0909
  654PNCE   C2B 5881  12.418  12.987   5.722  0.0498  0.1030 -0.2970
  654PNCE   C3B 5882  12.548  12.924   6.057  0.0383 -0.1697  0.0380
  654PNCE   D4B 5883  12.917  12.742   6.235  0.0266 -0.1188  0.0164
  654PNCE   C5B 5884  13.235  12.558   6.030 -0.1596  0.3424 -0.0157
  654PNCE   C6B 5885  13.595  12.361   6.227 -0.1316 -0.0030 -0.1308
  655CHOL   ROH 5886   9.298   7.930   4.799 -0.1490  0.0781  0.2837
  655CHOL    R1 5887   9.531   7.949   4.958 -0.0952  0.0185  0.2125
  655CHOL    R2 5888   9.572   8.155   5.138  0.0151  0.0117  0.1957
  655CHOL    R3 5889   9.609   7.951   5.314  0.0133  0.0055  0.1890
  655CHOL    R4 5890   9.704   8.190   5.456  0.2216 -0.0330  0.1167
  655CHOL    R5 5891   9.815   8.005   5.424  0.1076 -0.0931  0.0642
  655CHOL    C1 5892   9.815   8.019   5.806  0.3402 -0.0649  0.0646
  655CHOL    C2 5893   9.731   8.060   6.177 -0.2469 -0.2311 -0.2337
  656PNCE   AM1 5894  14.168   4.904   3.925  0.1895  0.0156 -0.1434
  656PNCE   AM2 5895  14.021   4.548   3.923 -0.0273  0.2883 -0.0858
  656PNCE   T1A 5896  14.146   4.891   4.369  0.0793  0.0395  0.0104
  656PNCE   C2A 5897  14.473   4.887   4.683  0.2182  0.0921 -0.1982
  656PNCE   C3A 5898  14.456   5.028   5.100 -0.0619 -0.0006 -0.1756
  656PNCE   C1B 5899  13.659   4.847   4.092  0.1059  0.3075  0.3641
  656PNCE   C2B 5900  13.618   4.938   4.532  0.1843 -0.0273 -0.1962
  656PNCE   C3B 5901  13.540   5.280   4.817  0.1981 -0.3535 -0.0697
  656PNCE   D4B 5902  13.776   5.656   4.916  0.1823  0.0031  0.0653
  656PNCE   C5B 5903  13.784   6.017   4.876 -0.0119 -0.2334  0.1837
  656PNCE   C6B 5904  13.623   6.113   4.469 -0.3046 -0.0217  0.1679
  657CHOL   ROH 5905   9.268  14.491   8.755 -0.0228  0.0429  0.0181
  657CHOL    R1 5906   9.373  14.631   8.532  0.0019 -0.0089 -0.0008
  657CHOL    R2 5907   9.644  14.675   8.499  0.0089 -0.1249 -0.0409
  657CHOL    R3 5908   9.601  14.557   8.258 -0.0696 -0.1087 -0.0371
  657CHOL    R4 5909   9.795  14.771   8.203  0.1598 -0.2928 -0.0216
  657CHOL    R5 5910   9.605  14.739   8.102  0.1361 -0.1156 -0.0524
  657CHOL    C1 5911   9.842  14.716   7.805  0.1741 -0.3753 -0.0067
  657CHOL    C2 5912   9.977  14.923   7.530 -0.2610 -0.1472 -0.0268
  658CHOL   ROH 5913  13.353   1.230   6.555  0.0163 -0.0897  0.0496
  658CHOL    R1 5914  13.500   1.194   6.316 -0.0302  0.0154  0.0046
  658CHOL    R2 5915  13.470   0.971   6.156  0.0656  0.0035  0.0039
  658CHOL    R3 5916  13.423   1.157   5.962 -0.1099 -0.0172  0.0248
  658CHOL    R4 5917  13.384   0.898   5.829  0.3609 -0.0543 -0.0631
  658CHOL    R5 5918  13.516   1.059   5.764  0.1548  0.1681  0.0510
  658CHOL    C1 5919  13.291   1.029   5.457  0.3681 -0.1075 -0.0826
  658CHOL    C2 5920  12.992   0.831   5.332 -0.0829  0.0181 -0.2393
  659PNCE   AM1 5921   0.716  14.985   4.788  0.0784 -0.0537 -0.5530
  659PNCE   AM2 5922   0.687  14.743   4.831 -0.1116 -0.1337  0.0361
  659PNCE   T1A 5923   0.667  15.057   5.211 -0.3189  0.2165 -0.0895
  659PNCE   C2A 5924   0.719  14.909   5.621 -0.1581  0.0248 -0.0781
  659PNCE   C3A 5925   0.547  14.758   5.975 -0.2055 -0.0127  0.2037
  659PNCE   C1B 5926   1.031  14.684   5.248  0.0383 -0.0529  0.2851
  659PNCE   C2B 5927   1.180  14.602   5.654  0.3551  0.2105 -0.0892
  659PNCE   C3B 5928   1.281  14.823   6.032 -0.0851  0.1467 -0.0494
  659PNCE   D4B 5929   0.996  15.001   6.300 -0.0663  0.0871 -0.1370
  659PNCE   C5B 5930   0.656  14.769   6.440  0.2290  0.0244  0.0714
  659PNCE   C6B 5931   0.234  14.973   6.693 -0.4244  0.0440 -0.1931
  660CHOL   ROH 5932   1.219   7.521   4.594  0.3218  0.2611 -0.1407
  660CHOL    R1 5933   1.328   7.709   4.776  0.2274  0.2908 -0.1123
  660CHOL    R2 5934   1.246   7.973   4.784  0.0316  0.2342 -0.0148
  660CHOL    R3 5935   1.203   7.918   5.046  0.1345  0.1190 -0.0224
  660CHOL    R4 5936   1.216   8.211   5.032 -0.1474  0.1331  0.0613
  660CHOL    R5 5937   1.334   8.082   5.163 -0.0003  0.2085 -0.0006
  660CHOL    C1 5938   1.159   8.298   5.424 -0.1550 -0.0340  0.0984
  660CHOL    C2 5939   1.393   8.322   5.684  0.0082  0.2088  0.0917
  661PNCE   AM1 5940  12.236   2.448   4.884  0.1388 -0.1855 -0.3300
  661PNCE   AM2 5941  12.076   2.700   5.039 -0.1655 -0.3156  0.3543
  661PNCE   T1A 5942  12.416   2.361   5.297  0.6447  0.1215 -0.0144
  661PNCE   C2A 5943  12.584   2.378   5.751  0.3365 -0.2071  0.2354
  661PNCE   C3A 5944  12.780   2.249   6.182  0.0528  0.0302  0.1082
  661PNCE   C1B 5945  12.148   2.677   5.543  0.1472  0.3640  0.0133
  661PNCE   C2B 5946  12.486   2.882   5.774  0.1448 -0.0323 -0.2908
  661PNCE   C3B 5947  12.784   2.756   6.198  0.1347 -0.0848  0.0439
  661PNCE   D4B 5948  12.717   2.567   6.588 -0.0565  0.0596  0.1404
  661PNCE   C5B 5949  12.527   2.183   6.639 -0.0042 -0.0684  0.1699
  661PNCE   C6B 5950  12.276   1.734   6.664  0.3454 -0.1700  0.0300
  662PNCE   AM1 5951   7.366  15.836   5.007  0.2087 -0.0672  0.5041
  662PNCE   AM2 5952   7.659  15.695   5.083 -0.0673  0.1649  0.1086
  662PNCE   T1A 5953   7.260  15.624   5.410 -0.3133 -0.1229 -0.0199
  662PNCE   C2A 5954   7.091  15.344   5.683 -0.0505 -0.1657 -0.1557
  662PNCE   C3A 5955   7.022  14.871   5.699  0.0234  0.2239 -0.0076
  662PNCE   C1B 5956   7.697  15.815   5.589  0.1069 -0.1389  0.0934
  662PNCE   C2B 5957   7.821  15.877   5.953  0.0929 -0.0972 -0.3313
  662PNCE   C3B 5958   8.099  16.007   6.200  0.3129 -0.2166 -0.1318
  662PNCE   D4B 5959   7.998  16.200   6.616  0.0865 -0.2069 -0.3409
  662PNCE   C5B 5960   8.153  16.474   6.936  0.1032  0.0076  0.0307
  662PNCE   C6B 5961   8.500  16.252   7.135 -0.0191  0.2756 -0.1145
  663CHOL   ROH 5962  13.172  15.584   4.872  0.2335  0.3197  0.1811
  663CHOL    R1 5963  13.254  15.634   5.138  0.1098  0.1007  0.2623
  663CHOL    R2 5964  13.076  15.705   5.337  0.0289  0.0218  0.2189
  663CHOL    R3 5965  13.185  15.492   5.466 -0.1165 -0.1106  0.1274
  663CHOL    R4 5966  13.039  15.640   5.675  0.4105  0.1963  0.2985
  663CHOL    R5 5967  13.249  15.580   5.680  0.3334 -0.1343  0.0121
  663CHOL    C1 5968  13.121  15.403   5.993  0.4963  0.1736  0.2590
  663CHOL    C2 5969  12.928  15.530   6.370  0.0877  0.1121  0.0567
  664XCA    COO 5970   8.282   9.139   8.225 -0.2243  0.1503 -0.0361
  664XCA     C1 5971   8.414   8.935   7.847 -0.0226 -0.0710  0.2030
  664XCA     C2 5972   8.230   8.916   7.399  0.1423  0.2298  0.1303
  664XCA     C3 5973   8.361   9.093   7.032  0.0146 -0.2217  0.1055
  664XCA     C4 5974   8.539   9.562   7.119  0.1569  0.1745 -0.2771
  664XCA     C5 5975   8.900   9.679   7.382 -0.0845  0.0605  0.0420
  664XCA     C6 5976   9.310   9.634   7.467  0.2244 -0.0259 -0.2288
  665XCA    COO 5977   9.777  11.644   5.206 -0.2331  0.3502  0.1708
  665XCA     C1 5978   9.674  11.911   5.648  0.1941  0.0884 -0.4711
  665XCA     C2 5979   9.677  11.927   6.130 -0.0356  0.3167  0.1203
  665XCA     C3 5980   9.817  12.211   6.460 -0.0526  0.0200 -0.1535
  665XCA     C4 5981   9.931  12.581   6.492 -0.1936  0.2844  0.3843
  665XCA     C5 5982   9.821  12.937   6.196  0.4135  0.0686 -0.0870
  665XCA     C6 5983   9.578  13.137   6.406 -0.3042  0.0653  0.2110
  666XCA    COO 5984  13.937   9.459   4.206 -0.1012 -0.2402 -0.0776
  666XCA     C1 5985  13.655   9.314   4.647  0.1548  0.0700 -0.2207
  666XCA     C2 5986  13.299   9.308   4.881 -0.0568  0.3269 -0.1179
  666XCA     C3 5987  12.962   9.373   5.114 -0.0227 -0.3547 -0.1154
  666XCA     C4 5988  12.642   9.486   5.505  0.0966  0.1363 -0.1257
  666XCA     C5 5989  12.527   9.492   5.941 -0.2844  0.1745  0.0826
  666XCA     C6 5990  12.678   9.461   6.432  0.0861  0.3055  0.0649
  667CHOL   ROH 5991   6.327  11.047   8.055 -0.0367 -0.2538 -0.0183
  667CHOL    R1 5992   6.385  11.106   7.785 -0.1098 -0.0158  0.0178
  667CHOL    R2 5993   6.458  10.912   7.602  0.1108  0.1864 -0.0993
  667CHOL    R3 5994   6.251  11.015   7.459 -0.0076  0.0359 -0.0426
  667CHOL    R4 5995   6.394  10.842   7.270  0.0933  0.1356 -0.0867
  667CHOL    R5 5996   6.342  11.052   7.240 -0.0764  0.1101 -0.0686
  667CHOL    C1 5997   6.162  10.897   6.942 -0.0279 -0.0353 -0.0262
  667CHOL    C2 5998   6.174  10.957   6.537 -0.0395 -0.0490 -0.0119
  668PNCE   AM1 5999   8.300  10.632   4.849  0.0565 -0.1657  0.0710
  668PNCE   AM2 6000   8.640  10.640   4.937 -0.1217 -0.1206 -0.0620
  668PNCE   T1A 6001   8.210  10.692   5.273  0.0334  0.0964  0.1891
  668PNCE   C2A 6002   8.320  10.646   5.709 -0.0838 -0.0635 -0.1547
  668PNCE   C3A 6003   8.500  10.963   6.000  0.0787 -0.2374  0.0625
  668PNCE   C1B 6004   8.776  10.589   5.414 -0.1013  0.0040  0.1267
  668PNCE   C2B 6005   8.916  10.542   5.787  0.0750 -0.1152  0.1866
  668PNCE   C3B 6006   9.318  10.490   6.114  0.2063  0.0776  0.1908
  668PNCE   D4B 6007   9.211  10.435   6.492  0.1081  0.0410  0.3685
  668PNCE   C5B 6008   9.129  10.904   6.631  0.1880  0.2263  0.1235
  668PNCE   C6B 6009   9.034  11.260   6.746  0.2625  0.0126  0.0810
  669CHOL   ROH 6010   6.614   4.555   8.108 -0.2668 -0.1253 -0.0647
  669CHOL    R1 6011   6.739   4.526   7.856 -0.1696  0.0021 -0.0321
  669CHOL    R2 6012   6.746   4.286   7.719  0.0163  0.0347 -0.0816
  669CHOL    R3 6013   6.637   4.434   7.519 -0.0081  0.0117 -0.0851
  669CHOL    R4 6014   6.670   4.166   7.404  0.1711  0.0458 -0.1237
  669CHOL    R5 6015   6.744   4.353   7.320  0.0938  0.1033 -0.0697
  669CHOL    C1 6016   6.523   4.235   7.032  0.2384  0.0307 -0.1516
  669CHOL    C2 6017   6.490   4.191   6.564  0.1542  0.0135  0.0956
  670XCA    COO 6018   9.866  10.200   8.838 -0.1222 -0.0417 -0.0782
  670XCA     C1 6019   9.732  10.510   8.624  0.3359  0.0624 -0.2377
  670XCA     C2 6020   9.563  10.567   8.229  0.0346 -0.0727 -0.0508
  670XCA     C3 6021   9.292  10.493   8.041  0.1294 -0.0015  0.0521
  670XCA     C4 6022   9.071  10.548   7.712 -0.1916 -0.1528  0.0049
  670XCA     C5 6023   8.882  10.794   7.491  0.0047  0.2855 -0.1552
  670XCA     C6 6024   8.551  10.887   7.491 -0.0527 -0.0724  0.3763
  671PNCE   AM1 6025  11.428   8.430   3.938  0.1595 -0.3546  0.2995
  671PNCE   AM2 6026  11.314   8.341   3.649  0.2884 -0.0457  0.0174
  671PNCE   T1A 6027  11.793   8.252   4.221  0.0692  0.2577 -0.3221
  671PNCE   C2A 6028  12.211   8.266   4.394 -0.3208 -0.0916  0.0290
  671PNCE   C3A 6029  12.397   8.551   4.229 -0.0032 -0.3254  0.3749
  671PNCE   C1B 6030  10.964   8.474   4.018  0.0139  0.1249  0.0738
  671PNCE   C2B 6031  10.592   8.595   4.233 -0.1675  0.0473 -0.0568
  671PNCE   C3B 6032  10.188   8.776   4.405  0.1249  0.1946  0.3499
  671PNCE   D4B 6033   9.990   9.088   4.701 -0.1548  0.1780 -0.0671
  671PNCE   C5B 6034  10.221   9.321   5.004  0.1696 -0.1265  0.0298
  671PNCE   C6B 6035  10.490   9.311   5.436  0.0882  0.3879 -0.0950
  672PNCE   AM1 6036  13.475  13.496   5.284 -0.0438  0.3959 -0.0076
  672PNCE   AM2 6037  13.218  13.487   5.122 -0.0785  0.0071  0.0721
  672PNCE   T1A 6038  13.235  13.632   5.744 -0.2688  0.1991 -0.1098
  672PNCE   C2A 6039  12.905  13.915   5.831  0.0700  0.1696 -0.0440
  672PNCE   C3A 6040  12.555  13.864   6.045  0.0401 -0.1095 -0.2236
  672PNCE   C1B 6041  13.131  13.122   5.348  0.0123  0.4607  0.1266
  672PNCE   C2B 6042  13.063  12.882   5.709 -0.4456  0.0307  0.4165
  672PNCE   C3B 6043  12.782  12.502   5.809  0.0278 -0.2528  0.0596
  672PNCE   D4B 6044  12.774  12.101   6.058  0.0516 -0.2623  0.0393
  672PNCE   C5B 6045  12.671  11.767   5.766  0.1850  0.1678 -0.2615
  672PNCE   C6B 6046  12.664  11.336   5.781  0.1414 -0.1817  0.0704
  673CHOL   ROH 6047   2.120   6.779   5.101  0.2755 -0.1708 -0.1867
  673CHOL    R1 6048   2.229   6.856   5.351  0.2106 -0.0931 -0.1814
  673CHOL    R2 6049   2.095   6.815   5.590  0.0991  0.0806 -0.2097
  673CHOL    R3 6050   2.325   6.689   5.659  0.0194  0.0160 -0.0610
  673CHOL    R4 6051   2.186   6.733   5.913 -0.1159  0.0754 -0.1498
  673CHOL    R5 6052   2.390   6.792   5.865 -0.0712  0.0090 -0.0309
  673CHOL    C1 6053   2.454   6.567   6.167 -0.3159  0.0117  0.0247
  673CHOL    C2 6054   2.760   6.559   6.475 -0.0894 -0.2221 -0.0525
  674CHOL   ROH 6055   0.554   4.750   4.573 -0.1028 -0.0376 -0.1354
  674CHOL    R1 6056   0.304   4.868   4.511 -0.0683  0.0531 -0.1024
  674CHOL    R2 6057   0.068   4.725   4.513 -0.1139  0.1316 -0.1053
  674CHOL    R3 6058  -0.012   4.922   4.682 -0.0400  0.1359 -0.0741
  674CHOL    R4 6059  -0.248   4.864   4.517 -0.0803  0.2075 -0.0495
  674CHOL    R5 6060  -0.156   5.059   4.549 -0.0257  0.1840 -0.0435
  674CHOL    C1 6061  -0.508   5.130   4.678  0.0086  0.2558  0.0121
  674CHOL    C2 6062  -0.830   5.374   4.457  0.0534  0.0190  0.3281
  675CHOL   ROH 6063   4.261   7.813   5.120 -0.0051  0.0928  0.0584
  675CHOL    R1 6064   4.239   7.885   5.392  0.0415 -0.0571  0.1025
  675CHOL    R2 6065   4.164   7.706   5.588  0.0854 -0.1665  0.0174
  675CHOL    R3 6066   4.396   7.786   5.706  0.1023 -0.2214  0.0223
  675CHOL    R4 6067   4.217   7.721   5.930  0.0887 -0.2151  0.0192
  675CHOL    R5 6068   4.325   7.908   5.899  0.1238 -0.2290  0.0375
  675CHOL    C1 6069   4.465   7.804   6.239  0.1066 -0.2950  0.0248
  675CHOL    C2 6070   4.400   7.760   6.752  0.0892 -0.1715 -0.1841
  676PNCE   AM1 6071   9.490   7.951   4.377  0.0595  0.2705  0.1174
  676PNCE   AM2 6072   9.568   7.770   4.157 -0.0772 -0.1274  0.3282
  676PNCE   T1A 6073   9.816   7.764   4.622 -0.1176  0.1586 -0.1229
  676PNCE   C2A 6074  10.051   7.407   4.858 -0.3018 -0.0525  0.3261
  676PNCE   C3A 6075  10.013   7.099   5.246  0.0787 -0.0751  0.0263
  676PNCE   C1B 6076   9.464   7.368   4.292  0.0193  0.1545 -0.1509
  676PNCE   C2B 6077   9.518   7.035   4.526  0.1769  0.1338 -0.1196
  676PNCE   C3B 6078   9.564   6.974   4.975  0.1680 -0.1164 -0.1416
  676PNCE   D4B 6079   9.554   6.805   5.335 -0.2550 -0.0206  0.0845
  676PNCE   C5B 6080   9.953   6.670   5.479 -0.0771  0.0001 -0.1877
  676PNCE   C6B 6081  10.016   6.188   5.694  0.3082 -0.1859  0.0129
  677PNCE   AM1 6082   8.071  13.923   5.076 -0.3666 -0.1714  0.0217
  677PNCE   AM2 6083   8.107  14.161   5.353  0.0328 -0.3223  0.2802
  677PNCE   T1A 6084   8.293  13.706   5.430  0.0800  0.0631 -0.0225
  677PNCE   C2A 6085   8.186  13.614   5.835 -0.1417 -0.0637 -0.0558
  677PNCE   C3A 6086   7.993  13.696   6.203 -0.0290  0.0525 -0.0255
  677PNCE   C1B 6087   7.956  14.028   5.691  0.1169  0.1376  0.3442
  677PNCE   C2B 6088   7.603  13.815   5.916 -0.2485 -0.1711  0.0104
  677PNCE   C3B 6089   7.228  13.823   6.064  0.1575 -0.0007 -0.1345
  677PNCE   D4B 6090   6.804  13.792   5.937 -0.0277  0.3077 -0.0206
  677PNCE   C5B 6091   6.613  14.172   5.992  0.1729 -0.1437  0.0700
  677PNCE   C6B 6092   6.372  14.455   6.379 -0.0174  0.1345 -0.0409
  678XCA    COO 6093   6.040  15.378   8.245  0.0114  0.1471  0.3641
  678XCA     C1 6094   5.786  15.329   7.790  0.1078 -0.1071 -0.1231
  678XCA     C2 6095   5.518  15.289   7.375 -0.1309  0.0033 -0.0025
  678XCA     C3 6096   5.028  15.171   7.287 -0.1814 -0.0236 -0.1112
  678XCA     C4 6097   4.652  15.160   7.225 -0.1328 -0.3842  0.0102
  678XCA     C5 6098   4.332  14.862   6.948  0.0314  0.0756  0.1300
  678XCA     C6 6099   3.909  14.698   7.123 -0.0875  0.3754 -0.0538
  679CHOL   ROH 6100   0.103   4.478   7.985 -0.0260  0.3488 -0.0068
  679CHOL    R1 6101   0.337   4.398   7.847  0.1210  0.4694  0.1653
  679CHOL    R2 6102   0.328   4.267   7.604  0.3482 -0.0340  0.4061
  679CHOL    R3 6103   0.492   4.470   7.526  0.0054  0.1097  0.0247
  679CHOL    R4 6104   0.581   4.239   7.370  0.1883  0.0532  0.2215
  679CHOL    R5 6105   0.705   4.366   7.496  0.1257  0.3745 -0.0354
  679CHOL    C1 6106   0.882   4.413   7.161 -0.2266  0.2389 -0.2440
  679CHOL    C2 6107   1.158   4.440   6.873 -0.0226 -0.0579 -0.0797
  680XCA    COO 6108  10.468  14.669   4.614  0.4088  0.0912  0.2439
  680XCA     C1 6109  10.290  14.809   5.092 -0.2464 -0.1099  0.3746
  680XCA     C2 6110  10.195  14.844   5.581  0.0384  0.3007  0.0392
  680XCA     C3 6111  10.145  14.962   5.989  0.0164 -0.0658  0.0200
  680XCA     C4 6112  10.242  15.146   6.433  0.1760  0.2966 -0.1905
  680XCA     C5 6113  10.125  15.168   6.909 -0.0530 -0.4002 -0.0160
  680XCA     C6 6114  10.064  15.402   7.221  0.0740  0.1614 -0.2437
  681CHOL   ROH 6115   8.325   4.257   4.348 -0.0364  0.0510  0.0191
  681CHOL    R1 6116   8.141   4.191   4.554 -0.0365 -0.0590 -0.0154
  681CHOL    R2 6117   8.221   4.089   4.797 -0.0174  0.0220  0.0132
  681CHOL    R3 6118   8.078   4.298   4.896 -0.1887 -0.0684 -0.0403
  681CHOL    R4 6119   8.053   4.089   5.100  0.3590  0.1113  0.2289
  681CHOL    R5 6120   7.889   4.196   5.003  0.0826 -0.2215  0.3087
  681CHOL    C1 6121   7.821   4.284   5.368  0.4172  0.0783  0.3044
  681CHOL    C2 6122   7.586   4.280   5.610 -0.1850 -0.1071 -0.1111
  682PNCE   AM1 6123   6.133  13.320   4.743 -0.0554  0.1732 -0.2026
  682PNCE   AM2 6124   6.218  13.128   5.114  0.0349  0.0949  0.0494
  682PNCE   T1A 6125   5.921  13.534   5.114 -0.0583 -0.0783  0.4675
  682PNCE   C2A 6126   5.752  13.570   5.619 -0.1303  0.0197  0.1042
  682PNCE   C3A 6127   5.589  13.323   6.046 -0.3012  0.2358 -0.1753
  682PNCE   C1B 6128   6.237  13.251   5.524  0.0035  0.2223  0.0027
  682PNCE   C2B 6129   6.201  13.229   5.978 -0.0428  0.0502 -0.1624
  682PNCE   C3B 6130   6.053  13.427   6.306  0.0098 -0.1141 -0.0660
  682PNCE   D4B 6131   6.106  13.693   6.721 -0.0047  0.1175  0.0179
  682PNCE   C5B 6132   6.226  13.512   7.202 -0.2826 -0.3332 -0.0687
  682PNCE   C6B 6133   6.074  13.095   7.333 -0.1530  0.1144  0.0673
  683CHOL   ROH 6134   6.037  13.749   8.497 -0.2056  0.1471  0.0435
  683CHOL    R1 6135   5.939  13.918   8.292 -0.1281 -0.0216 -0.1387
  683CHOL    R2 6136   6.075  14.144   8.208 -0.3001  0.1581  0.0351
  683CHOL    R3 6137   6.051  14.028   7.963  0.2375  0.0693  0.0120
  683CHOL    R4 6138   6.056  14.316   7.909 -0.4699  0.0897  0.0067
  683CHOL    R5 6139   5.904  14.174   7.843 -0.0406 -0.3205 -0.1354
  683CHOL    C1 6140   6.022  14.307   7.505 -0.0641 -0.0334 -0.0315
  683CHOL    C2 6141   6.296  14.480   7.321  0.3056 -0.1243 -0.1207
  684PNCE   AM1 6142   8.168   7.343   4.770  0.0435 -0.3379  0.2955
  684PNCE   AM2 6143   8.106   7.612   4.944  0.2836 -0.1216 -0.1845
  684PNCE   T1A 6144   8.470   7.125   5.094 -0.2528  0.0063  0.0581
  684PNCE   C2A 6145   8.647   7.008   5.495 -0.2783  0.2420 -0.0493
  684PNCE   C3A 6146   8.520   6.787   5.909 -0.2855  0.2125  0.1151
  684PNCE   C1B 6147   8.106   7.420   5.344  0.0418  0.1775 -0.0214
  684PNCE   C2B 6148   8.181   6.950   5.608 -0.1099 -0.1420  0.0342
  684PNCE   C3B 6149   8.221   6.514   5.611  0.1446  0.2020 -0.1148
  684PNCE   D4B 6150   8.306   6.098   5.534  0.2410 -0.1985 -0.0286
  684PNCE   C5B 6151   8.146   5.882   5.239 -0.0889  0.0354  0.0088
  684PNCE   C6B 6152   8.294   5.339   5.108  0.3757 -0.0867 -0.0659
  685CHOL   ROH 6153   0.445   1.254   8.265 -0.0719 -0.2215 -0.0777
  685CHOL    R1 6154   0.387   1.301   7.992 -0.1191 -0.1628 -0.0575
  685CHOL    R2 6155   0.335   1.097   7.813 -0.1215 -0.1239 -0.0969
  685CHOL    R3 6156   0.108   1.239   7.766 -0.1457 -0.1405 -0.0329
  685CHOL    R4 6157   0.158   1.092   7.516 -0.1048 -0.0173 -0.1089
  685CHOL    R5 6158   0.128   1.307   7.537 -0.1446 -0.0267 -0.0035
  685CHOL    C1 6159  -0.158   1.223   7.299 -0.1178  0.0291 -0.0559
  685CHOL    C2 6160  -0.120   1.102   6.970 -0.0873 -0.1786 -0.2500
  686XCA    COO 6161  13.702  15.658   9.033 -0.0863  0.1732 -0.1471
  686XCA     C1 6162  14.056  15.810   8.759 -0.3301 -0.2959 -0.0991
  686XCA     C2 6163  14.282  15.828   8.423  0.0391  0.1531  0.2031
  686XCA     C3 6164  14.194  15.826   7.947 -0.0365 -0.2170  0.3056
  686XCA     C4 6165  14.256  15.913   7.513  0.2225 -0.0375 -0.0095
  686XCA     C5 6166  14.148  15.944   7.156  0.0898 -0.3908 -0.1316
  686XCA     C6 6167  13.856  15.803   6.871  0.3145 -0.1744  0.0169
  687PNCE   AM1 6168   2.064   9.077   4.419  0.2229 -0.0886 -0.0259
  687PNCE   AM2 6169   1.828   9.250   4.150 -0.2197 -0.0473  0.0866
  687PNCE   T1A 6170   2.293   9.328   4.655 -0.1786 -0.0844  0.3215
  687PNCE   C2A 6171   2.551   9.333   4.907 -0.1498 -0.0585 -0.3903
  687PNCE   C3A 6172   2.651   9.088   5.209  0.0584 -0.2386  0.2262
  687PNCE   C1B 6173   1.756   9.353   4.645 -0.0755  0.0882 -0.0892
  687PNCE   C2B 6174   2.030   9.231   5.100  0.0738 -0.1900 -0.3002
  687PNCE   C3B 6175   2.160   9.238   5.468  0.0292  0.0182  0.2019
  687PNCE   D4B 6176   2.180   8.984   5.926  0.1035 -0.5422  0.0266
  687PNCE   C5B 6177   1.938   8.941   6.328  0.3890 -0.1122  0.0523
  687PNCE   C6B 6178   1.826   8.910   6.679 -0.1781 -0.2864 -0.0826
  688CHOL   ROH 6179   8.663  14.319   5.356 -0.0579 -0.1208 -0.1097
  688CHOL    R1 6180   8.589  14.291   5.628  0.2189  0.0140 -0.0161
  688CHOL    R2 6181   8.376  14.134   5.708  0.0219  0.3956  0.2371
  688CHOL    R3 6182   8.563  14.019   5.868  0.0170  0.0518  0.0066
  688CHOL    R4 6183   8.317  14.017   6.028  0.1536  0.3007  0.2275
  688CHOL    R5 6184   8.510  14.099   6.088  0.3233  0.0068  0.1013
  688CHOL    C1 6185   8.458  13.841   6.364  0.2256 -0.0772  0.0056
  688CHOL    C2 6186   8.165  13.971   6.660 -0.1397  0.0210  0.1086
  689CHOL   ROH 6187   1.329  12.440   4.403  0.2960 -0.1727  0.0481
  689CHOL    R1 6188   1.530  12.482   4.597  0.1968 -0.0886  0.1338
  689CHOL    R2 6189   1.657  12.725   4.629  0.2714 -0.1111  0.0026
  689CHOL    R3 6190   1.577  12.696   4.888  0.1071  0.1397 -0.0163
  689CHOL    R4 6191   1.723  12.951   4.883  0.3336  0.0174 -0.1264
  689CHOL    R5 6192   1.760  12.782   5.016  0.1181  0.0745  0.0163
  689CHOL    C1 6193   1.686  13.055   5.273  0.2157  0.3273 -0.2195
  689CHOL    C2 6194   1.927  13.412   5.392  0.3851 -0.1083  0.1518
  690PNCE   AM1 6195   2.786   7.583   4.467 -0.0795  0.0808  0.0450
  690PNCE   AM2 6196   2.499   7.356   4.532 -0.1767 -0.0805 -0.0144
  690PNCE   T1A 6197   2.426   7.867   4.610  0.3204  0.0022 -0.3858
  690PNCE   C2A 6198   1.949   7.892   4.619  0.2884 -0.1568  0.0535
  690PNCE   C3A 6199   1.683   8.091   4.822  0.0695  0.1886 -0.0692
  690PNCE   C1B 6200   2.025   7.427   4.717 -0.2013 -0.1033 -0.2163
  690PNCE   C2B 6201   1.707   7.555   4.952 -0.0012  0.3113  0.1484
  690PNCE   C3B 6202   1.520   7.619   5.196  0.1117 -0.1953 -0.0699
  690PNCE   D4B 6203   1.288   7.812   5.573 -0.0079  0.0278  0.1909
  690PNCE   C5B 6204   1.138   7.602   5.867  0.0418  0.4028  0.1603
  690PNCE   C6B 6205   1.090   7.507   6.260 -0.0976 -0.0436  0.2198
  691PNCE   AM1 6206   3.546   1.069   4.377 -0.0906  0.0416  0.2269
  691PNCE   AM2 6207   3.505   1.244   4.710 -0.3574 -0.0185  0.0359
  691PNCE   T1A 6208   3.694   0.614   4.564 -0.0160  0.0088 -0.1624
  691PNCE   C2A 6209   3.706   0.322   4.989  0.1403  0.4983  0.0054
  691PNCE   C3A 6210   3.891   0.431   5.429 -0.1756 -0.2005  0.1774
  691PNCE   C1B 6211   3.206   0.999   5.062 -0.1730  0.1206 -0.1849
  691PNCE   C2B 6212   2.940   1.032   5.515  0.1675  0.0216 -0.2680
  691PNCE   C3B 6213   3.008   1.181   5.931  0.3667 -0.0083 -0.0351
  691PNCE   D4B 6214   2.975   1.107   6.292 -0.1002 -0.0275 -0.3909
  691PNCE   C5B 6215   2.747   0.839   6.517 -0.0199 -0.0622 -0.2091
  691PNCE   C6B 6216   2.344   0.740   6.448 -0.0071 -0.0367 -0.3524
  692PNCE   AM1 6217   4.923   3.689   4.947  0.2103 -0.0324 -0.2761
  692PNCE   AM2 6218   4.881   3.352   5.026  0.3834  0.1942 -0.0462
  692PNCE   T1A 6219   4.941   3.694   5.423  0.1588  0.1517  0.0126
  692PNCE   C2A 6220   5.299   3.785   5.555 -0.1919  0.1152 -0.0200
  692PNCE   C3A 6221   5.451   4.207   5.557 -0.3392  0.0919  0.3392
  692PNCE   C1B 6222   5.262   3.282   5.289 -0.3866  0.2312 -0.0734
  692PNCE   C2B 6223   5.317   3.045   5.648  0.0241 -0.0030  0.2812
  692PNCE   C3B 6224   5.319   2.966   6.012 -0.0054  0.0146 -0.3913
  692PNCE   D4B 6225   5.186   2.673   6.342  0.0153  0.0166  0.1556
  692PNCE   C5B 6226   5.488   2.795   6.573 -0.0951  0.0327 -0.2900
  692PNCE   C6B 6227   5.486   2.899   7.039 -0.2267 -0.3758 -0.1668
  693CHOL   ROH 6228  13.469   6.774   4.159 -0.1728  0.1378  0.0297
  693CHOL    R1 6229  13.336   6.695   4.396 -0.0789 -0.0054  0.0361
  693CHOL    R2 6230  13.465   6.569   4.605  0.0695  0.1414  0.0327
  693CHOL    R3 6231  13.360   6.772   4.751 -0.1516  0.0291  0.0344
  693CHOL    R4 6232  13.451   6.577   4.950  0.0653  0.1197  0.0332
  693CHOL    R5 6233  13.251   6.663   4.934 -0.0334 -0.0947  0.0351
  693CHOL    C1 6234  13.343   6.773   5.288 -0.1445  0.0018  0.0351
  693CHOL    C2 6235  13.133   6.902   5.419  0.1178  0.2246 -0.0384
  694PNCE   AM1 6236   6.724  11.724   5.160  0.1173  0.0218 -0.3750
  694PNCE   AM2 6237   6.397  11.810   5.093  0.2147  0.1741 -0.1976
  694PNCE   T1A 6238   7.017  11.435   5.387 -0.0198  0.1952  0.1021
  694PNCE   C2A 6239   7.050  11.284   5.757 -0.4415 -0.4045  0.0270
  694PNCE   C3A 6240   6.890  11.465   6.133  0.1011 -0.1308  0.0651
  694PNCE   C1B 6241   6.198  11.970   5.435 -0.0144  0.1096  0.2235
  694PNCE   C2B 6242   5.912  12.040   5.714 -0.1508  0.0040  0.1816
  694PNCE   C3B 6243   5.825  12.343   5.933 -0.1377  0.0521 -0.0517
  694PNCE   D4B 6244   5.528  12.384   6.281  0.4786  0.1514 -0.0156
  694PNCE   C5B 6245   5.269  12.126   6.350  0.0426 -0.0284 -0.1964
  694PNCE   C6B 6246   4.931  11.976   6.129  0.5647 -0.1814 -0.0622
  695PNCE   AM1 6247   1.011   6.637   4.083  0.0813  0.2357 -0.2821
  695PNCE   AM2 6248   1.055   6.920   4.259  0.0319 -0.2794  0.1106
  695PNCE   T1A 6249   0.660   6.512   4.290 -0.2158 -0.0046 -0.1278
  695PNCE   C2A 6250   0.673   6.169   4.688  0.2861  0.0935 -0.2629
  695PNCE   C3A 6251   0.567   5.730   4.602  0.1187  0.0377 -0.1299
  695PNCE   C1B 6252   0.879   6.727   4.716  0.2874  0.0555  0.3063
  695PNCE   C2B 6253   0.724   6.539   5.135 -0.1761  0.0544 -0.1492
  695PNCE   C3B 6254   0.639   6.311   5.547  0.4059  0.1200 -0.1916
  695PNCE   D4B 6255   0.238   6.347   5.839  0.1288  0.5333  0.0672
  695PNCE   C5B 6256  -0.178   6.365   5.572 -0.0227 -0.0405 -0.0287
  695PNCE   C6B 6257  -0.649   6.357   5.724  0.4570  0.2938  0.0419
  696PNCE   AM1 6258   8.467  14.727   5.039  0.0139  0.0958  0.1261
  696PNCE   AM2 6259   8.831  14.667   5.073 -0.1426 -0.1688 -0.0669
  696PNCE   T1A 6260   8.252  14.603   5.429 -0.0823 -0.0663 -0.1068
  696PNCE   C2A 6261   8.000  14.501   5.859 -0.1128 -0.0575 -0.2774
  696PNCE   C3A 6262   8.123  14.332   6.340 -0.2485  0.1202  0.0066
  696PNCE   C1B 6263   8.814  14.714   5.569 -0.1706 -0.0236 -0.1164
  696PNCE   C2B 6264   8.880  14.863   6.004 -0.0252 -0.0778 -0.2748
  696PNCE   C3B 6265   8.849  15.013   6.518  0.3091 -0.1104 -0.0478
  696PNCE   D4B 6266   8.591  14.969   6.879 -0.2292  0.3222  0.0266
  696PNCE   C5B 6267   8.798  14.724   7.185 -0.1374 -0.0370 -0.0161
  696PNCE   C6B 6268   9.007  14.705   7.607 -0.0092  0.1512 -0.0827
  697PNCE   AM1 6269  14.509  12.366   4.982 -0.2036 -0.0254 -0.0112
  697PNCE   AM2 6270  14.703  12.582   5.060 -0.1967  0.3472  0.2828
  697PNCE   T1A 6271  14.192  12.272   5.381  0.0253  0.0323 -0.1056
  697PNCE   C2A 6272  13.894  12.362   5.626  0.0176 -0.1175 -0.1213
  697PNCE   C3A 6273  13.497  12.594   5.571  0.0822 -0.5184  0.0068
  697PNCE   C1B 6274  14.877  12.479   5.420  0.0177  0.1739 -0.0203
  697PNCE   C2B 6275  14.853  12.494   5.892 -0.0497 -0.1302 -0.0177
  697PNCE   C3B 6276  14.889  12.471   6.361 -0.3660 -0.0224  0.0278
  697PNCE   D4B 6277  15.146  12.247   6.652 -0.1159 -0.0307 -0.0643
  697PNCE   C5B 6278  15.520  12.299   6.893  0.0934  0.0792  0.0942
  697PNCE   C6B 6279  15.713  12.085   7.101  0.1393 -0.3996 -0.1996
  698PNCE   AM1 6280   4.149   2.630   5.171 -0.0834 -0.4302  0.1186
  698PNCE   AM2 6281   4.054   2.859   5.392 -0.0706 -0.3012  0.0397
  698PNCE   T1A 6282   4.037   2.140   5.133 -0.1983  0.2521 -0.1829
  698PNCE   C2A 6283   3.945   1.775   5.123 -0.1324  0.0359  0.0990
  698PNCE   C3A 6284   3.859   1.328   5.028  0.0686 -0.0030  0.0452
  698PNCE   C1B 6285   4.423   2.968   5.556 -0.1212 -0.0856 -0.2136
  698PNCE   C2B 6286   4.406   3.128   5.966  0.2024  0.0486 -0.0188
  698PNCE   C3B 6287   4.538   3.436   6.166 -0.0748  0.0968 -0.3487
  698PNCE   D4B 6288   4.769   3.563   6.500  0.0248  0.2065  0.2530
  698PNCE   C5B 6289   4.617   3.830   6.746  0.2092  0.0480 -0.0360
  698PNCE   C6B 6290   4.185   4.058   6.752 -0.1392  0.1700  0.2427
  699XCA    COO 6291   8.770   9.387   4.557 -0.0478  0.2745 -0.0940
  699XCA     C1 6292   8.615   9.205   5.002  0.1232 -0.1579 -0.2607
  699XCA     C2 6293   8.510   9.225   5.390  0.2936 -0.1021 -0.0696
  699XCA     C3 6294   8.476   9.245   5.843 -0.3382 -0.1082  0.1731
  699XCA     C4 6295   8.577   9.595   6.168 -0.0284  0.0531  0.1333
  699XCA     C5 6296   8.506   9.960   6.227  0.1463 -0.0991 -0.1200
  699XCA     C6 6297   8.576  10.400   6.114  0.0449  0.1067 -0.1572
  700XCA    COO 6298   0.381  11.150   8.657  0.0487  0.1073  0.0981
  700XCA     C1 6299   0.415  11.415   8.295 -0.0037  0.0721  0.0711
  700XCA     C2 6300   0.554  11.277   7.915  0.0940  0.4976  0.1955
  700XCA     C3 6301   0.722  11.064   7.611  0.0067  0.1179 -0.1925
  700XCA     C4 6302   0.583  10.699   7.414  0.1241 -0.1004  0.0499
  700XCA     C5 6303   0.207  10.514   7.240  0.0343 -0.4157  0.1095
  700XCA     C6 6304  -0.106  10.695   7.401 -0.4505 -0.0094  0.0967
  701PNCE   AM1 6305   1.134   3.488   5.072 -0.2218  0.1040  0.0567
  701PNCE   AM2 6306   0.929   3.315   4.951 -0.2052  0.0284 -0.1090
  701PNCE   T1A 6307   1.388   3.304   5.352  0.2077  0.1354  0.1340
  701PNCE   C2A 6308   1.635   3.094   5.693  0.2946  0.1407 -0.1768
  701PNCE   C3A 6309   1.706   2.846   6.057  0.1094  0.1074 -0.0967
  701PNCE   C1B 6310   0.901   3.528   5.459  0.1237 -0.1852 -0.5372
  701PNCE   C2B 6311   0.758   3.467   5.966 -0.1522 -0.3400 -0.2813
  701PNCE   C3B 6312   0.460   3.636   6.221 -0.1016  0.3143  0.1282
  701PNCE   D4B 6313   0.357   3.823   6.644  0.0275  0.0580 -0.0577
  701PNCE   C5B 6314  -0.047   4.037   6.739 -0.1067 -0.0722  0.2427
  701PNCE   C6B 6315  -0.339   3.946   7.020  0.0320  0.3024 -0.3130
  702PNCE   AM1 6316   1.687   5.914   4.881  0.1425 -0.0598  0.2517
  702PNCE   AM2 6317   1.426   5.842   4.849 -0.0283 -0.3748 -0.3111
  702PNCE   T1A 6318   1.583   6.118   5.302 -0.0709  0.1547  0.0969
  702PNCE   C2A 6319   1.534   6.256   5.793 -0.3771  0.0731  0.4330
  702PNCE   C3A 6320   1.280   6.588   5.848 -0.1272  0.2149 -0.0508
  702PNCE   C1B 6321   1.042   5.968   4.978 -0.2538  0.0188 -0.1839
  702PNCE   C2B 6322   0.683   5.768   5.073  0.0533  0.2402 -0.2956
  702PNCE   C3B 6323   0.342   5.654   5.105  0.3377 -0.0415 -0.2260
  702PNCE   D4B 6324  -0.004   5.580   5.440 -0.1795 -0.2664  0.2254
  702PNCE   C5B 6325  -0.285   5.245   5.514  0.3406  0.2918  0.1165
  702PNCE   C6B 6326  -0.650   4.889   5.614  0.3967  0.3148 -0.0904
  703CHOL   ROH 6327  14.165  13.146   5.423 -0.0181  0.1836  0.0909
  703CHOL    R1 6328  14.040  13.054   5.660  0.0522  0.1835  0.1284
  703CHOL    R2 6329  14.037  12.787   5.733  0.0232  0.1748  0.0993
  703CHOL    R3 6330  14.143  12.883   5.964  0.1326  0.1269  0.0695
  703CHOL    R4 6331  13.982  12.652   6.046  0.1791  0.1069  0.0986
  703CHOL    R5 6332  13.968  12.855   6.126  0.2123  0.0883  0.1487
  703CHOL    C1 6333  14.049  12.664   6.446  0.3724  0.0223  0.0701
  703CHOL    C2 6334  13.897  12.424   6.555  0.1056 -0.0537 -0.0234
  704PNCE   AM1 6335   9.491  11.458   4.757 -0.1868 -0.0940 -0.0392
  704PNCE   AM2 6336   9.798  11.352   4.440  0.0607 -0.1113  0.1772
  704PNCE   T1A 6337   9.452  11.280   5.134  0.0814 -0.1585 -0.0721
  704PNCE   C2A 6338   9.395  11.483   5.556 -0.1550  0.3645  0.0538
  704PNCE   C3A 6339   9.425  11.430   6.023 -0.2551  0.2610  0.1535
  704PNCE   C1B 6340   9.917  11.169   4.912  0.2275 -0.2221  0.3799
  704PNCE   C2B 6341   9.869  11.106   5.340 -0.0915 -0.1785  0.1276
  704PNCE   C3B 6342   9.873  11.289   5.759 -0.1989  0.1453 -0.0758
  704PNCE   D4B 6343   9.903  11.062   6.106 -0.0990 -0.2541  0.3749
  704PNCE   C5B 6344  10.060  10.769   6.396  0.3470 -0.1984  0.1227
  704PNCE   C6B 6345  10.246  10.638   6.814  0.1078 -0.1918  0.1995
  705PNCE   AM1 6346   9.655   4.299   4.277 -0.0522  0.0176 -0.1189
  705PNCE   AM2 6347   9.511   4.225   4.101  0.1986 -0.0630  0.1867
  705PNCE   T1A 6348   9.827   4.643   4.110 -0.0816 -0.4147  0.0956
  705PNCE   C2A 6349   9.932   5.006   4.160 -0.1515  0.0915 -0.0394
  705PNCE   C3A 6350  10.285   5.189   4.036 -0.4061 -0.1876 -0.2020
  705PNCE   C1B 6351   9.791   4.277   3.747  0.2884 -0.2838  0.1092
  705PNCE   C2B 6352  10.218   4.523   3.795  0.0981  0.3803 -0.1865
  705PNCE   C3B 6353  10.536   4.287   4.033  0.2246  0.0136 -0.2373
  705PNCE   D4B 6354  10.895   4.056   4.315  0.1463  0.3195  0.0237
  705PNCE   C5B 6355  10.822   4.110   4.798 -0.0271 -0.0415  0.1620
  705PNCE   C6B 6356  10.914   4.323   5.119 -0.0275 -0.0922 -0.1293
  706CHOL   ROH 6357   9.643  10.174   4.950 -0.1262  0.0203 -0.1199
  706CHOL    R1 6358   9.528  10.234   5.202 -0.0158 -0.0468 -0.0531
  706CHOL    R2 6359   9.598  10.099   5.432  0.1347 -0.0639 -0.1073
  706CHOL    R3 6360   9.647  10.349   5.526  0.1170 -0.0648 -0.0951
  706CHOL    R4 6361   9.724  10.172   5.746  0.1762 -0.0717 -0.1220
  706CHOL    R5 6362   9.586  10.340   5.757  0.1561 -0.0911 -0.0860
  706CHOL    C1 6363   9.844  10.449   6.016  0.1836 -0.0773 -0.1191
  706CHOL    C2 6364   9.734  10.264   6.284 -0.0541 -0.0271 -0.0634
  707XCA    COO 6365  10.760   9.996   4.410 -0.0439  0.0609  0.4658
  707XCA     C1 6366  10.911   9.551   4.532 -0.0744  0.3737  0.0148
  707XCA     C2 6367  11.076   9.068   4.552 -0.1875 -0.1083 -0.0842
  707XCA     C3 6368  11.017   8.626   4.558  0.1681 -0.1764  0.0423
  707XCA     C4 6369  11.325   8.327   4.585  0.2206 -0.0089  0.0037
  707XCA     C5 6370  11.790   8.332   4.696 -0.0523  0.1612 -0.0349
  707XCA     C6 6371  12.205   8.072   4.861  0.1316 -0.0038  0.0436
  708XCA    COO 6372  15.765  14.746   4.751  0.0057 -0.0476  0.0767
  708XCA     C1 6373  15.574  14.862   5.031 -0.2990 -0.3319  0.0970
  708XCA     C2 6374  15.603  14.949   5.370  0.3120  0.0584  0.1616
  708XCA     C3 6375  15.452  14.838   5.798  0.1415 -0.1223 -0.0878
  708XCA     C4 6376  15.331  14.966   6.252 -0.1540 -0.1117  0.2547
  708XCA     C5 6377  15.355  14.937   6.705  0.0092 -0.1242  0.2386
  708XCA     C6 6378  15.212  14.742   7.092 -0.1703  0.1099 -0.2505
  709CHOL   ROH 6379   3.483   3.903   6.006  0.0198 -0.2937  0.1155
  709CHOL    R1 6380   3.406   3.925   6.278 -0.1061 -0.2284  0.0768
  709CHOL    R2 6381   3.431   4.159   6.421  0.1060 -0.2659  0.1212
  709CHOL    R3 6382   3.167   4.121   6.469  0.0271  0.0519 -0.0436
  709CHOL    R4 6383   3.284   4.169   6.734 -0.0485 -0.3428  0.0508
  709CHOL    R5 6384   3.161   3.999   6.676 -0.2506 -0.1197 -0.1558
  709CHOL    C1 6385   2.950   4.140   6.961 -0.2125 -0.0892 -0.1450
  709CHOL    C2 6386   2.927   4.069   7.364 -0.0303  0.1292 -0.0980
  710CHOL   ROH 6387   1.380  13.761   6.866  0.0188  0.0924 -0.0098
  710CHOL    R1 6388   1.457  13.671   7.122  0.0394 -0.1257 -0.0908
  710CHOL    R2 6389   1.644  13.471   7.160  0.2991  0.0758 -0.2733
  710CHOL    R3 6390   1.765  13.657   7.317 -0.0140  0.0517  0.0086
  710CHOL    R4 6391   1.842  13.400   7.434  0.2741  0.0031 -0.2736
  710CHOL    R5 6392   1.749  13.568   7.538  0.0050 -0.2411 -0.1040
  710CHOL    C1 6393   2.070  13.534   7.741 -0.0343 -0.0620 -0.0091
  710CHOL    C2 6394   2.144  13.225   7.924  0.1862 -0.0759  0.0771
  711CHOL   ROH 6395   1.278   3.883   6.711  0.0882  0.0607  0.1897
  711CHOL    R1 6396   1.334   3.640   6.845 -0.0245  0.0503  0.2201
  711CHOL    R2 6397   1.140   3.497   6.982 -0.1680 -0.0157 -0.0376
  711CHOL    R3 6398   1.223   3.295   6.822  0.0735  0.0322  0.0248
  711CHOL    R4 6399   1.194   3.172   7.085 -0.2449 -0.0304 -0.0447
  711CHOL    R5 6400   1.371   3.166   6.959 -0.0821  0.0259  0.1831
  711CHOL    C1 6401   1.304   2.792   6.994 -0.0629  0.0059  0.0097
  711CHOL    C2 6402   1.394   2.428   7.061  0.0997  0.0591  0.1835
  712CHOL   ROH 6403   2.493   4.787   7.772 -0.0595  0.1324  0.1355
  712CHOL    R1 6404   2.387   4.987   7.602  0.1838  0.2240  0.0874
  712CHOL    R2 6405   2.126   5.077   7.623  0.0487 -0.0121 -0.4299
  712CHOL    R3 6406   2.246   5.320   7.642 -0.1778  0.0736  0.1154
  712CHOL    R4 6407   2.002   5.370   7.489  0.1150  0.0340 -0.3925
  712CHOL    R5 6408   2.205   5.424   7.430  0.2194  0.2689  0.1216
  712CHOL    C1 6409   2.042   5.769   7.428 -0.0591  0.1414  0.1411
  712CHOL    C2 6410   1.791   6.092   7.350 -0.1424  0.1405  0.0233
  713XCA    COO 6411  10.058   3.536   4.710 -0.1744 -0.0451  0.0290
  713XCA     C1 6412   9.951   3.766   5.161  0.1553  0.2276 -0.0572
  713XCA     C2 6413   9.836   3.802   5.635 -0.1101 -0.0516 -0.0909
  713XCA     C3 6414   9.823   3.875   6.076 -0.2444  0.0172  0.1096
  713XCA     C4 6415   9.719   3.636   6.537  0.2796 -0.0217  0.2038
  713XCA     C5 6416   9.674   3.256   6.596 -0.7504 -0.0268 -0.0882
  713XCA     C6 6417   9.493   2.883   6.909 -0.1988 -0.0331  0.1263
  714CHOL   ROH 6418   3.773  14.065   4.930 -0.0047 -0.1142  0.0361
  714CHOL    R1 6419   3.720  13.927   5.171  0.0741 -0.1344  0.0431
  714CHOL    R2 6420   3.920  13.846   5.344  0.1187  0.0681  0.0938
  714CHOL    R3 6421   3.774  13.985   5.526 -0.0454 -0.0383  0.0453
  714CHOL    R4 6422   3.878  13.756   5.675  0.0098  0.0043  0.0627
  714CHOL    R5 6423   3.670  13.817   5.661 -0.0156 -0.1111 -0.0261
  714CHOL    C1 6424   3.716  13.834   6.039 -0.2076 -0.1326 -0.0010
  714CHOL    C2 6425   3.488  13.533   6.210  0.0978 -0.1487 -0.2952
  715CHOL   ROH 6426  15.254   9.087   4.599  0.2523 -0.0676  0.1663
  715CHOL    R1 6427  15.208   9.134   4.874 -0.0517 -0.1868  0.1398
  715CHOL    R2 6428  14.994   9.024   5.011  0.0068 -0.5615 -0.0569
  715CHOL    R3 6429  15.188   8.934   5.178  0.0251 -0.2768  0.0875
  715CHOL    R4 6430  14.950   8.955   5.346 -0.0060 -0.1404  0.0333
  715CHOL    R5 6431  15.144   9.045   5.385 -0.0384 -0.0164 -0.0580
  715CHOL    C1 6432  15.106   8.831   5.699  0.0038  0.3722  0.2215
  715CHOL    C2 6433  15.123   8.560   5.949 -0.1468  0.1135  0.0277
  716PNCE   AM1 6434   3.394   3.388   5.080  0.2947  0.1888 -0.0303
  716PNCE   AM2 6435   3.635   3.464   5.293 -0.1232  0.2868 -0.0204
  716PNCE   T1A 6436   3.194   3.137   5.390 -0.0406  0.0250 -0.1769
  716PNCE   C2A 6437   3.117   3.050   5.838  0.2874  0.1477 -0.2454
  716PNCE   C3A 6438   3.023   3.032   6.286  0.0227 -0.1465 -0.1529
  716PNCE   C1B 6439   3.497   3.424   5.698  0.0770 -0.2151  0.0387
  716PNCE   C2B 6440   3.352   3.467   6.175 -0.1988 -0.1635 -0.1924
  716PNCE   C3B 6441   3.148   3.589   6.498 -0.2123  0.0124  0.0949
  716PNCE   D4B 6442   2.976   3.666   6.897 -0.2760 -0.1492 -0.1618
  716PNCE   C5B 6443   2.635   3.384   7.049 -0.2385 -0.2022 -0.1115
  716PNCE   C6B 6444   2.620   2.859   7.064  0.0691  0.0725  0.0542
  717CHOL   ROH 6445  13.332   3.983   8.006 -0.1685  0.0517  0.0754
  717CHOL    R1 6446  13.458   3.749   7.908 -0.0731  0.1102  0.0545
  717CHOL    R2 6447  13.465   3.512   8.051 -0.1173  0.0505 -0.0330
  717CHOL    R3 6448  13.357   3.409   7.825  0.0278  0.1271 -0.1376
  717CHOL    R4 6449  13.557   3.212   7.908 -0.0981  0.0535 -0.0251
  717CHOL    R5 6450  13.541   3.306   7.712  0.0812  0.0952 -0.0166
  717CHOL    C1 6451  13.508   2.940   7.611  0.0493  0.1272 -0.1189
  717CHOL    C2 6452  13.680   2.668   7.886  0.2036  0.1229  0.1130
  718PNCE   AM1 6453  14.104  15.589   4.190  0.1195  0.0441  0.2371
  718PNCE   AM2 6454  14.454  15.739   4.221 -0.1768 -0.0210  0.1717
  718PNCE   T1A 6455  14.094  15.423   4.541 -0.0161  0.2323 -0.1764
  718PNCE   C2A 6456  13.912  15.220   4.827  0.1492  0.0453 -0.0918
  718PNCE   C3A 6457  13.721  15.467   5.140  0.2829 -0.0997 -0.0088
  718PNCE   C1B 6458  14.561  15.528   4.555  0.2155  0.2508 -0.1185
  718PNCE   C2B 6459  14.348  15.638   4.936  0.2812  0.1069  0.0317
  718PNCE   C3B 6460  14.301  16.034   5.089  0.0824 -0.1385  0.3082
  718PNCE   D4B 6461  14.446  16.474   5.179 -0.1188 -0.0089 -0.0539
  718PNCE   C5B 6462  14.214  16.888   5.066 -0.0814  0.0322  0.0825
  718PNCE   C6B 6463  13.933  17.057   4.845 -0.0211 -0.1450  0.2213
  719PNCE   AM1 6464  12.132   3.571   4.619 -0.2374  0.2875  0.1431
  719PNCE   AM2 6465  11.988   3.784   4.384 -0.0400 -0.1552 -0.2868
  719PNCE   T1A 6466  12.020   3.338   5.024 -0.0320 -0.2206  0.2311
  719PNCE   C2A 6467  12.029   3.124   5.433  0.0018 -0.0755 -0.0821
  719PNCE   C3A 6468  11.890   3.069   5.862 -0.2795  0.2902 -0.2639
  719PNCE   C1B 6469  11.894   4.102   4.593 -0.1738  0.0993 -0.0044
  719PNCE   C2B 6470  12.015   4.337   5.114 -0.2273  0.2474 -0.1331
  719PNCE   C3B 6471  12.203   4.483   5.511 -0.0883  0.1200 -0.1731
  719PNCE   D4B 6472  12.644   4.771   5.456  0.2403 -0.2092  0.1565
  719PNCE   C5B 6473  12.930   4.916   5.779 -0.1685 -0.0017 -0.0795
  719PNCE   C6B 6474  13.259   4.917   5.954  0.0502  0.0797  0.2277
  720PNCE   AM1 6475  10.480  15.502   5.082  0.0527 -0.1170  0.1256
  720PNCE   AM2 6476  10.548  15.785   5.048 -0.0570 -0.1615  0.0498
  720PNCE   T1A 6477  10.654  15.134   5.419 -0.0666 -0.2756  0.1674
  720PNCE   C2A 6478  10.665  14.990   5.804 -0.1198 -0.0051 -0.1919
  720PNCE   C3A 6479  10.546  14.718   6.151  0.3655 -0.2731  0.0918
  720PNCE   C1B 6480  10.602  15.680   5.508  0.0429  0.2916  0.2620
  720PNCE   C2B 6481  10.690  15.818   5.940 -0.2725 -0.3067 -0.3684
  720PNCE   C3B 6482  10.617  15.867   6.409  0.3112  0.1829  0.1018
  720PNCE   D4B 6483  10.673  15.970   6.746 -0.0080  0.0720 -0.0267
  720PNCE   C5B 6484  10.924  15.859   7.141  0.1361 -0.0249 -0.1399
  720PNCE   C6B 6485  10.981  15.487   7.387  0.3824  0.1249  0.3760
  721XCA    COO 6486  12.609   1.983   8.991 -0.1403  0.1833  0.1946
  721XCA     C1 6487  12.527   1.926   8.588 -0.1822  0.0037 -0.2468
  721XCA     C2 6488  12.671   1.979   8.217 -0.0054 -0.3430 -0.1066
  721XCA     C3 6489  12.550   2.063   7.852  0.1006 -0.0259 -0.1399
  721XCA     C4 6490  12.213   2.170   7.659 -0.1710  0.1962 -0.0133
  721XCA     C5 6491  11.774   2.001   7.512  0.0500  0.4532  0.0321
  721XCA     C6 6492  11.425   1.698   7.330 -0.1901  0.0375  0.2726
  722PNCE   AM1 6493  15.401   7.339   4.027 -0.0294 -0.2014  0.2314
  722PNCE   AM2 6494  15.584   7.010   4.164 -0.0615  0.0723 -0.1279
  722PNCE   T1A 6495  14.941   7.327   4.166  0.0251 -0.1813 -0.2278
  722PNCE   C2A 6496  14.549   7.108   4.416 -0.1372 -0.0664  0.0619
  722PNCE   C3A 6497  14.277   6.970   4.751  0.1999 -0.1038  0.0425
  722PNCE   C1B 6498  15.706   7.240   4.571  0.1664  0.2502  0.2177
  722PNCE   C2B 6499  15.526   7.215   5.049 -0.1156  0.0739 -0.1505
  722PNCE   C3B 6500  15.281   7.246   5.370 -0.1768 -0.1149  0.1314
  722PNCE   D4B 6501  14.768   7.262   5.476  0.0440  0.1266  0.1262
  722PNCE   C5B 6502  14.500   6.943   5.633  0.1520  0.5276  0.0861
  722PNCE   C6B 6503  14.137   7.115   5.725 -0.0592 -0.1350 -0.0187
  723PNCE   AM1 6504   0.034  12.220   4.873 -0.0625 -0.2646  0.0899
  723PNCE   AM2 6505  -0.127  12.393   4.659  0.0641  0.0343  0.1067
  723PNCE   T1A 6506   0.155  12.024   5.267  0.1150 -0.2422 -0.3183
  723PNCE   C2A 6507   0.071  11.825   5.641 -0.0920 -0.0444  0.1832
  723PNCE   C3A 6508   0.169  12.020   6.011 -0.0519 -0.2214 -0.1269
  723PNCE   C1B 6509  -0.284  12.550   5.035  0.0765  0.2782  0.3455
  723PNCE   C2B 6510  -0.047  12.544   5.417 -0.3426  0.2979  0.0817
  723PNCE   C3B 6511   0.150  12.458   5.715  0.1372 -0.2011 -0.3011
  723PNCE   D4B 6512   0.604  12.479   6.027 -0.2062  0.2354 -0.0160
  723PNCE   C5B 6513   0.677  12.812   6.313  0.3366 -0.0994  0.0325
  723PNCE   C6B 6514   0.284  12.943   6.708 -0.0345  0.2071 -0.0975
  724PNCE   AM1 6515  12.551  10.276   4.343 -0.1126 -0.0067 -0.1392
  724PNCE   AM2 6516  12.152  10.209   4.439 -0.0095 -0.3637  0.4329
  724PNCE   T1A 6517  12.806  10.343   4.740 -0.0335  0.1973 -0.0000
  724PNCE   C2A 6518  12.635  10.319   5.139 -0.3100 -0.0846 -0.0232
  724PNCE   C3A 6519  12.520  10.361   5.521  0.0146  0.0631  0.0123
  724PNCE   C1B 6520  12.346   9.959   4.782 -0.3837 -0.0133 -0.1703
  724PNCE   C2B 6521  12.077   9.931   5.152 -0.0982 -0.4070 -0.1093
  724PNCE   C3B 6522  12.303   9.936   5.555 -0.0936  0.3171 -0.1376
  724PNCE   D4B 6523  12.473  10.020   5.955 -0.1139  0.2192  0.2780
  724PNCE   C5B 6524  12.776  10.390   6.063  0.0317  0.0795  0.1245
  724PNCE   C6B 6525  13.051  10.599   6.263 -0.2126  0.2633 -0.1465
  725PNCE   AM1 6526   2.317  15.425   4.999 -0.0801  0.0713  0.0304
  725PNCE   AM2 6527   2.284  15.820   4.890 -0.3266  0.1091  0.1616
  725PNCE   T1A 6528   2.330  15.565   5.416  0.0049  0.2112  0.2030
  725PNCE   C2A 6529   2.357  15.656   5.839 -0.0197  0.0425  0.1618
  725PNCE   C3A 6530   2.116  15.605   6.283 -0.0058 -0.2697  0.0040
  725PNCE   C1B 6531   1.954  15.741   5.169  0.0225 -0.0775 -0.0068
  725PNCE   C2B 6532   1.578  15.816   5.416 -0.0210 -0.3655  0.2010
  725PNCE   C3B 6533   1.517  16.129   5.796 -0.0162  0.0148 -0.0174
  725PNCE   D4B 6534   1.402  16.121   6.253  0.3242  0.1076 -0.2652
  725PNCE   C5B 6535   1.093  15.909   6.484  0.0708 -0.2313  0.0407
  725PNCE   C6B 6536   0.915  15.674   6.889  0.1034  0.4311 -0.0819
  726PNCE   AM1 6537   1.527  14.500   4.451 -0.0404 -0.2345 -0.0324
  726PNCE   AM2 6538   1.824  14.423   4.572 -0.1175 -0.1723 -0.1033
  726PNCE   T1A 6539   1.400  14.406   4.880 -0.1296  0.2410 -0.0161
  726PNCE   C2A 6540   1.524  14.370   5.376 -0.1305 -0.1265  0.2244
  726PNCE   C3A 6541   1.830  14.413   5.682 -0.1295 -0.1768 -0.0943
  726PNCE   C1B 6542   1.875  14.277   4.965 -0.0498 -0.3263 -0.3523
  726PNCE   C2B 6543   2.118  14.245   5.324 -0.1424 -0.0109 -0.1477
  726PNCE   C3B 6544   2.309  14.273   5.696  0.1521 -0.1110 -0.1955
  726PNCE   D4B 6545   2.697  14.293   5.917  0.0195  0.0409 -0.1367
  726PNCE   C5B 6546   3.021  14.164   5.605  0.0457  0.0018  0.0826
  726PNCE   C6B 6547   3.070  14.297   5.151  0.1197  0.1383  0.0675
  727CHOL   ROH 6548  14.887  12.913   5.631 -0.1165 -0.1593 -0.0009
  727CHOL    R1 6549  15.091  12.941   5.825 -0.0844 -0.0355 -0.0517
  727CHOL    R2 6550  15.047  13.056   6.072 -0.0561  0.0741 -0.0966
  727CHOL    R3 6551  15.153  12.823   6.164 -0.0024  0.1336 -0.0065
  727CHOL    R4 6552  15.220  13.022   6.369 -0.2338  0.1869  0.0221
  727CHOL    R5 6553  15.359  12.888   6.266 -0.1003  0.2443  0.1244
  727CHOL    C1 6554  15.421  12.783   6.628 -0.2868  0.3085  0.1757
  727CHOL    C2 6555  15.762  12.657   6.706 -0.2141 -0.1125 -0.1994
  728XCA    COO 6556   3.062   4.904   4.870 -0.1416 -0.1180  0.2464
  728XCA     C1 6557   2.916   5.176   5.208  0.1642  0.2256  0.0645
  728XCA     C2 6558   2.840   5.341   5.563  0.0990 -0.0801  0.2260
  728XCA     C3 6559   2.849   5.470   6.022 -0.1276 -0.3537 -0.0808
  728XCA     C4 6560   3.020   5.454   6.459  0.3236  0.1582  0.0513
  728XCA     C5 6561   3.322   5.480   6.822  0.0240  0.0154  0.1803
  728XCA     C6 6562   3.621   5.342   7.062 -0.2120 -0.1560 -0.0034
  729PNCE   AM1 6563  14.271  15.047   8.608 -0.0697 -0.1219  0.0575
  729PNCE   AM2 6564  14.363  15.382   8.572  0.0437  0.0585  0.3024
  729PNCE   T1A 6565  14.490  14.855   8.265 -0.1196  0.0385 -0.0615
  729PNCE   C2A 6566  14.661  14.967   7.849 -0.1085  0.0491  0.2853
  729PNCE   C3A 6567  14.904  14.787   7.561 -0.0141  0.0176  0.0039
  729PNCE   C1B 6568  14.401  15.329   8.113 -0.1294 -0.3550  0.2614
  729PNCE   C2B 6569  14.311  15.405   7.690 -0.2037  0.0490  0.3228
  729PNCE   C3B 6570  14.375  15.146   7.347  0.2175  0.3643 -0.1671
  729PNCE   D4B 6571  14.255  15.037   7.043  0.0321  0.1790  0.4174
  729PNCE   C5B 6572  13.967  14.676   6.841  0.0791 -0.2265 -0.0460
  729PNCE   C6B 6573  13.518  14.621   6.916 -0.0223  0.1928 -0.3524
  730XCA    COO 6574   0.605   5.479   4.064  0.0570  0.1248  0.0928
  730XCA     C1 6575   0.201   5.365   4.291  0.0867  0.0072 -0.0444
  730XCA     C2 6576   0.112   5.530   4.706  0.2614 -0.1197  0.2585
  730XCA     C3 6577  -0.032   5.212   5.085 -0.2456 -0.1952  0.2788
  730XCA     C4 6578  -0.281   4.795   5.047  0.2085  0.2995 -0.2163
  730XCA     C5 6579  -0.459   4.525   5.237  0.1083  0.2371  0.2204
  730XCA     C6 6580  -0.593   4.345   5.634  0.0598 -0.2382 -0.2014
  731PNCE   AM1 6581  14.523  11.856   4.849 -0.2320  0.2832 -0.0499
  731PNCE   AM2 6582  14.407  11.580   4.843 -0.0460  0.1414  0.0549
  731PNCE   T1A 6583  14.683  12.020   5.313 -0.0356  0.0106 -0.1804
  731PNCE   C2A 6584  14.876  12.055   5.689 -0.0250 -0.0893  0.0012
  731PNCE   C3A 6585  15.124  12.051   6.090  0.1046 -0.0181 -0.1656
  731PNCE   C1B 6586  14.656  11.543   5.215  0.0499  0.3416 -0.0455
  731PNCE   C2B 6587  14.665  11.552   5.703 -0.0181 -0.0149  0.1195
  731PNCE   C3B 6588  14.769  11.604   6.092 -0.0707  0.0259 -0.2166
  731PNCE   D4B 6589  14.419  11.720   6.185 -0.0393  0.0260 -0.2748
  731PNCE   C5B 6590  14.162  11.540   6.498  0.0468 -0.1656 -0.1972
  731PNCE   C6B 6591  14.207  11.443   6.992 -0.1032  0.0358 -0.0695
  732PNCE   AM1 6592  13.452  14.494   5.219 -0.1033 -0.2587  0.2766
  732PNCE   AM2 6593  13.471  14.192   5.137 -0.0681 -0.3522 -0.3608
  732PNCE   T1A 6594  13.423  14.666   5.555 -0.0207 -0.0034  0.0964
  732PNCE   C2A 6595  13.406  14.641   6.008 -0.2450 -0.1672  0.1980
  732PNCE   C3A 6596  13.330  14.466   6.326  0.2215  0.0439  0.0888
  732PNCE   C1B 6597  13.332  14.176   5.544 -0.0524  0.0214 -0.0212
  732PNCE   C2B 6598  13.350  14.142   5.925  0.0575  0.0703 -0.0358
  732PNCE   C3B 6599  13.558  13.973   6.295  0.1556  0.0446  0.0847
  732PNCE   D4B 6600  13.712  13.637   6.611 -0.1669 -0.1436 -0.0258
  732PNCE   C5B 6601  14.123  13.532   6.611 -0.4221  0.1484  0.0769
  732PNCE   C6B 6602  14.517  13.690   6.445 -0.0171  0.3832  0.0102
  733PNCE   AM1 6603  15.828  11.242   4.467 -0.0829 -0.0139  0.1291
  733PNCE   AM2 6604  15.813  11.562   4.532 -0.3319  0.1214 -0.2048
  733PNCE   T1A 6605  15.846  11.289   4.948 -0.2121 -0.3072  0.1604
  733PNCE   C2A 6606  16.086  11.366   5.275  0.1837  0.0508 -0.1467
  733PNCE   C3A 6607  16.316  11.469   5.696 -0.0127  0.0018 -0.0123
  733PNCE   C1B 6608  16.132  11.793   4.846  0.0172 -0.0997  0.2492
  733PNCE   C2B 6609  16.473  11.717   5.184 -0.3515  0.0513  0.0022
  733PNCE   C3B 6610  16.723  11.759   5.466 -0.1275  0.2368  0.2122
  733PNCE   D4B 6611  17.046  11.848   5.779  0.0589  0.1121 -0.0305
  733PNCE   C5B 6612  17.150  11.674   6.223 -0.3759  0.0680 -0.1934
  733PNCE   C6B 6613  17.006  11.825   6.609  0.1546 -0.0359  0.0443
  734CHOL   ROH 6614  11.607  10.266   7.870 -0.1360 -0.1410 -0.2731
  734CHOL    R1 6615  11.789  10.377   7.684 -0.0959 -0.1829 -0.2600
  734CHOL    R2 6616  11.738  10.383   7.412 -0.1205 -0.0820 -0.2591
  734CHOL    R3 6617  11.787  10.649   7.442  0.0163 -0.1150 -0.1820
  734CHOL    R4 6618  11.830  10.597   7.156 -0.2367  0.0057 -0.2289
  734CHOL    R5 6619  11.970  10.693   7.294 -0.0896 -0.1179 -0.3047
  734CHOL    C1 6620  11.929  10.970   7.035 -0.1760  0.0257 -0.1390
  734CHOL    C2 6621  11.827  11.273   6.778 -0.5853 -0.2132 -0.1426
  735CHOL   ROH 6622   1.128  15.409   6.592 -0.1373 -0.1137 -0.0614
  735CHOL    R1 6623   1.331  15.216   6.638 -0.0328  0.0006 -0.0408
  735CHOL    R2 6624   1.281  14.944   6.638  0.0833 -0.0206  0.1474
  735CHOL    R3 6625   1.480  14.941   6.452 -0.0016 -0.0483  0.0551
  735CHOL    R4 6626   1.412  14.659   6.494  0.0461 -0.0476  0.1664
  735CHOL    R5 6627   1.610  14.748   6.509  0.0458 -0.0201  0.0501
  735CHOL    C1 6628   1.676  14.489   6.237 -0.0553 -0.0895  0.0908
  735CHOL    C2 6629   1.462  14.224   6.016  0.4330 -0.1934  0.0728
  736XCA    COO 6630  13.378   5.659   4.348  0.0024  0.0076  0.0223
  736XCA     C1 6631  13.270   5.684   4.813 -0.2270  0.1331 -0.3824
  736XCA     C2 6632  12.956   5.604   5.187 -0.3442 -0.0711  0.3197
  736XCA     C3 6633  12.760   5.363   5.544 -0.0584 -0.0625  0.0102
  736XCA     C4 6634  12.639   5.334   6.000  0.1992  0.2717  0.1621
  736XCA     C5 6635  12.801   5.179   6.319 -0.0559  0.1696 -0.0717
  736XCA     C6 6636  12.765   5.232   6.670  0.0547  0.0845  0.1099
  737PNCE   AM1 6637   0.471   0.580   4.723  0.0611  0.0799 -0.0362
  737PNCE   AM2 6638   0.508   0.924   4.743 -0.0805 -0.1716 -0.1256
  737PNCE   T1A 6639   0.454   0.420   5.146 -0.0723 -0.0789 -0.5129
  737PNCE   C2A 6640   0.268   0.361   5.606  0.3602  0.0347 -0.1978
  737PNCE   C3A 6641   0.375   0.337   6.036  0.3239 -0.0297 -0.1507
  737PNCE   C1B 6642   0.805   0.833   5.040  0.0313  0.4300 -0.0073
  737PNCE   C2B 6643   0.860   0.634   5.339  0.0151  0.2366 -0.1577
  737PNCE   C3B 6644   0.614   0.756   5.690  0.1688 -0.1565 -0.0041
  737PNCE   D4B 6645   0.624   0.817   6.065  0.4104 -0.1177 -0.0286
  737PNCE   C5B 6646   0.315   1.016   6.222  0.0164 -0.0558 -0.0194
  737PNCE   C6B 6647   0.103   1.406   6.488 -0.1370 -0.1575 -0.2215
  738PNCE   AM1 6648   1.269   0.771   4.483  0.2295  0.0742 -0.3440
  738PNCE   AM2 6649   0.982   0.640   4.594  0.0669  0.1285  0.2128
  738PNCE   T1A 6650   1.410   0.874   4.794  0.0530  0.0077  0.1001
  738PNCE   C2A 6651   1.313   0.820   5.173 -0.2870 -0.0354 -0.3527
  738PNCE   C3A 6652   1.434   0.676   5.539  0.3067  0.1120 -0.0754
  738PNCE   C1B 6653   1.067   0.403   4.984  0.2207  0.0247  0.3986
  738PNCE   C2B 6654   1.183   0.256   5.364  0.1109 -0.0542  0.0261
  738PNCE   C3B 6655   1.076   0.318   5.740  0.1009  0.1526  0.3169
  738PNCE   D4B 6656   0.918   0.282   6.088  0.2759  0.0737  0.0621
  738PNCE   C5B 6657   0.963   0.565   6.406  0.2505  0.0629  0.0010
  738PNCE   C6B 6658   0.838   0.845   6.703  0.0481  0.1835  0.1628
  739CHOL   ROH 6659  12.856   9.013   6.363  0.1175 -0.0703 -0.0526
  739CHOL    R1 6660  13.030   9.186   6.504  0.1121 -0.0642 -0.0549
  739CHOL    R2 6661  13.241   9.317   6.382  0.0055  0.0675 -0.0899
  739CHOL    R3 6662  13.124   9.537   6.489 -0.0280 -0.0197  0.0579
  739CHOL    R4 6663  13.377   9.634   6.377 -0.1436  0.1327 -0.0997
  739CHOL    R5 6664  13.306   9.662   6.582 -0.0152  0.0389 -0.0349
  739CHOL    C1 6665  13.347  10.026   6.475 -0.2618  0.0888  0.0334
  739CHOL    C2 6666  13.646  10.286   6.647 -0.0968  0.0572  0.1714
  740PNCE   AM1 6667   4.624   4.509   4.942 -0.0772  0.0477  0.0593
  740PNCE   AM2 6668   4.847   4.227   5.071  0.3831 -0.1413 -0.0693
  740PNCE   T1A 6669   4.752   4.729   5.340  0.3035  0.0176  0.0285
  740PNCE   C2A 6670   4.842   4.572   5.794  0.3547 -0.0567  0.2368
  740PNCE   C3A 6671   4.724   4.550   6.274  0.2546  0.0037  0.0524
  740PNCE   C1B 6672   4.917   4.181   5.471 -0.4013 -0.1766 -0.3942
  740PNCE   C2B 6673   4.897   3.994   5.910  0.0122 -0.0305 -0.2940
  740PNCE   C3B 6674   4.759   4.070   6.337  0.0745  0.4867  0.0410
  740PNCE   D4B 6675   4.843   4.290   6.669 -0.1113 -0.0921 -0.1284
  740PNCE   C5B 6676   4.545   4.226   7.003  0.1900 -0.1667 -0.3096
  740PNCE   C6B 6677   4.587   4.227   7.375  0.0369  0.0225 -0.2751
  741PNCE   AM1 6678   5.238  10.854   4.987  0.1255 -0.1714  0.1942
  741PNCE   AM2 6679   5.531  11.002   5.001 -0.1248 -0.2523 -0.2404
  741PNCE   T1A 6680   5.116  11.361   5.144 -0.0636  0.1430  0.2008
  741PNCE   C2A 6681   5.264  11.647   5.451  0.0672  0.1065  0.1649
  741PNCE   C3A 6682   5.426  11.999   5.494  0.0779  0.1296  0.1015
  741PNCE   C1B 6683   5.568  11.064   5.430 -0.1858 -0.2012 -0.1750
  741PNCE   C2B 6684   5.386  11.071   5.803  0.1542 -0.0666 -0.1257
  741PNCE   C3B 6685   5.121  10.993   6.091 -0.2075 -0.2621 -0.1748
  741PNCE   D4B 6686   4.938  11.154   6.492  0.0354 -0.3027 -0.0467
  741PNCE   C5B 6687   4.535  11.069   6.615  0.1254  0.0465  0.1673
  741PNCE   C6B 6688   4.115  11.229   6.645  0.1299  0.2438 -0.0025
  742CHOL   ROH 6689   0.172   7.821   8.046 -0.0191 -0.2421 -0.3115
  742CHOL    R1 6690   0.266   7.557   8.007  0.1104 -0.2062 -0.2462
  742CHOL    R2 6691   0.407   7.481   7.782  0.2163 -0.1739 -0.1896
  742CHOL    R3 6692   0.589   7.395   7.965  0.1966 -0.0711 -0.1199
  742CHOL    R4 6693   0.716   7.347   7.704  0.1646 -0.3543 -0.0896
  742CHOL    R5 6694   0.687   7.201   7.864  0.1220 -0.2007  0.0489
  742CHOL    C1 6695   1.067   7.187   7.830  0.1161 -0.3629  0.0341
  742CHOL    C2 6696   1.339   6.931   7.953 -0.2330 -0.0210  0.1121
  743CHOL   ROH 6697  15.217   2.447   5.078  0.1736  0.0379  0.0519
  743CHOL    R1 6698  15.139   2.557   5.327  0.0662  0.0290  0.0232
  743CHOL    R2 6699  15.036   2.404   5.531  0.1366 -0.0061  0.0350
  743CHOL    R3 6700  15.236   2.518   5.675  0.0438  0.1487  0.0429
  743CHOL    R4 6701  15.058   2.400   5.876  0.3126 -0.3088  0.0234
  743CHOL    R5 6702  15.126   2.607   5.869  0.0073 -0.1967  0.1863
  743CHOL    C1 6703  15.259   2.505   6.212  0.3280 -0.3398  0.0241
  743CHOL    C2 6704  15.233   2.818   6.535 -0.0265 -0.1184 -0.2436
  744XCA    COO 6705  11.028   4.210   8.489  0.1507 -0.0850 -0.0105
  744XCA     C1 6706  10.846   3.798   8.468 -0.3407 -0.1165 -0.1331
  744XCA     C2 6707  10.704   3.369   8.504 -0.0946  0.0261 -0.0541
  744XCA     C3 6708  10.440   3.104   8.520 -0.2476  0.1274  0.1706
  744XCA     C4 6709   9.922   3.242   8.597  0.1314 -0.0770 -0.1558
  744XCA     C5 6710   9.404   3.157   8.800  0.0120  0.2094 -0.2398
  744XCA     C6 6711   9.152   2.888   8.680  0.0591  0.2239 -0.1546
  745PNCE   AM1 6712   8.529   7.011   4.580 -0.0945  0.2092  0.2793
  745PNCE   AM2 6713   8.584   6.716   4.380  0.1195  0.1200  0.0260
  745PNCE   T1A 6714   8.211   6.776   4.803 -0.2166  0.0416  0.1367
  745PNCE   C2A 6715   8.019   6.589   5.158  0.0603 -0.0771  0.2050
  745PNCE   C3A 6716   7.858   6.249   5.290 -0.0499  0.0895  0.1079
  745PNCE   C1B 6717   8.769   6.500   4.773  0.0519  0.0856  0.4460
  745PNCE   C2B 6718   8.922   6.193   5.056 -0.0219 -0.2757 -0.0711
  745PNCE   C3B 6719   9.299   6.180   5.239 -0.1544 -0.0198  0.1885
  745PNCE   D4B 6720   9.541   6.298   5.559 -0.0057 -0.0170  0.0032
  745PNCE   C5B 6721   9.637   6.531   5.944  0.1882  0.2451 -0.0138
  745PNCE   C6B 6722  10.012   6.751   6.032  0.0599  0.0810 -0.0362
  746PNCE   AM1 6723   2.492   5.666   4.434  0.1311  0.3026  0.0628
  746PNCE   AM2 6724   2.548   5.975   4.628  0.0118 -0.2241  0.0521
  746PNCE   T1A 6725   2.348   5.513   4.826 -0.0819 -0.1584  0.0488
  746PNCE   C2A 6726   2.035   5.257   5.104  0.0060 -0.0536 -0.0886
  746PNCE   C3A 6727   1.972   5.338   5.508 -0.2688 -0.3133  0.0435
  746PNCE   C1B 6728   2.221   6.060   4.942  0.0927  0.0774  0.0845
  746PNCE   C2B 6729   1.953   5.757   5.201 -0.0122  0.0466  0.0589
  746PNCE   C3B 6730   1.791   5.771   5.616  0.3236  0.1986  0.1562
  746PNCE   D4B 6731   1.923   5.764   6.021 -0.1824  0.1291 -0.1791
  746PNCE   C5B 6732   1.677   5.570   6.444  0.0827  0.1431  0.1015
  746PNCE   C6B 6733   1.460   5.363   6.774  0.0435  0.4632  0.2775
  747XCA    COO 6734   3.880   5.185   4.863 -0.0790  0.2330 -0.0007
  747XCA     C1 6735   4.104   5.516   5.141 -0.1032 -0.1848  0.3742
  747XCA     C2 6736   4.289   5.548   5.517  0.1133 -0.1564 -0.1067
  747XCA     C3 6737   4.459   5.507   5.932  0.2752 -0.2517  0.2044
  747XCA     C4 6738   4.279   5.390   6.155 -0.1341 -0.2176  0.2548
  747XCA     C5 6739   3.967   5.290   6.386 -0.0353 -0.1359  0.1868
  747XCA     C6 6740   3.710   5.048   6.723 -0.2358 -0.2999  0.1850
  748CHOL   ROH 6741   4.587   0.193   8.677 -0.0403 -0.1910  0.0423
  748CHOL    R1 6742   4.696   0.107   8.430 -0.0662  0.0509 -0.0546
  748CHOL    R2 6743   4.622  -0.130   8.309  0.1505  0.0213 -0.1209
  748CHOL    R3 6744   4.569   0.032   8.097 -0.1492  0.0559 -0.0258
  748CHOL    R4 6745   4.589  -0.236   7.981 -0.0628  0.0966 -0.1263
  748CHOL    R5 6746   4.699  -0.059   7.918 -0.2372  0.1982 -0.1699
  748CHOL    C1 6747   4.520  -0.145   7.592 -0.4684  0.1728 -0.0402
  748CHOL    C2 6748   4.584  -0.207   7.259  0.0748  0.1962 -0.1669
  749PNCE   AM1 6749   8.298   1.401   5.731  0.0314  0.0031 -0.1598
  749PNCE   AM2 6750   8.622   1.620   5.511  0.2415 -0.0059 -0.0222
  749PNCE   T1A 6751   8.453   1.356   6.062 -0.1092 -0.0716  0.0766
  749PNCE   C2A 6752   8.449   1.339   6.506 -0.0612 -0.2257 -0.1722
  749PNCE   C3A 6753   8.365   1.232   6.993 -0.0511 -0.1069  0.1908
  749PNCE   C1B 6754   8.575   1.864   5.907 -0.0821  0.1284  0.0582
  749PNCE   C2B 6755   8.739   1.746   6.354  0.1707 -0.0698 -0.1000
  749PNCE   C3B 6756   8.885   1.835   6.764  0.1090  0.3221  0.0304
  749PNCE   D4B 6757   8.924   1.816   7.249  0.0404 -0.1105 -0.2944
  749PNCE   C5B 6758   9.232   2.114   7.511  0.1304  0.1904 -0.1249
  749PNCE   C6B 6759   9.525   2.087   7.864 -0.1291  0.1412  0.2959
  750XCA    COO 6760  10.732  11.643   5.278 -0.0178 -0.1253  0.2368
  750XCA     C1 6761  10.832  11.601   5.742 -0.0087  0.1256 -0.2668
  750XCA     C2 6762  10.649  11.638   6.187 -0.0681 -0.0651  0.1847
  750XCA     C3 6763  10.483  11.567   6.561  0.0856 -0.0841 -0.0311
  750XCA     C4 6764  10.142  11.707   6.803  0.1988  0.1076  0.0398
  750XCA     C5 6765   9.839  11.611   6.886 -0.1495 -0.0194 -0.1503
  750XCA     C6 6766   9.560  11.358   6.964 -0.2871  0.0347 -0.1566
  751XCA    COO 6767  12.726  11.386   8.426  0.0326 -0.1941  0.2373
  751XCA     C1 6768  12.502  11.514   8.091 -0.1176 -0.1682 -0.0748
  751XCA     C2 6769  12.415  11.662   7.640 -0.1601 -0.3892 -0.1142
  751XCA     C3 6770  12.679  11.852   7.210  0.0947  0.0025  0.0442
  751XCA     C4 6771  12.949  12.155   6.972 -0.3441  0.1180  0.0995
  751XCA     C5 6772  13.347  12.271   6.720 -0.0822 -0.1008 -0.0612
  751XCA     C6 6773  13.676  11.950   6.517  0.0347  0.2513 -0.2170
  752PNCE   AM1 6774  15.858  11.169   8.393  0.0897  0.0026 -0.0334
  752PNCE   AM2 6775  15.935  10.797   8.548 -0.2174 -0.1742  0.1565
  752PNCE   T1A 6776  15.781  11.272   7.897  0.0554  0.1087 -0.0541
  752PNCE   C2A 6777  15.703  11.216   7.486  0.4319 -0.1451 -0.1574
  752PNCE   C3A 6778  15.532  11.189   7.126 -0.0271 -0.1187 -0.6561
  752PNCE   C1B 6779  16.124  10.856   8.163 -0.0700 -0.0615 -0.4502
  752PNCE   C2B 6780  16.066  10.925   7.707  0.0045  0.0302 -0.3426
  752PNCE   C3B 6781  16.170  11.108   7.301 -0.0345 -0.1953 -0.1285
  752PNCE   D4B 6782  16.030  10.984   6.913 -0.2078 -0.0486 -0.0749
  752PNCE   C5B 6783  15.720  10.702   6.842 -0.0418  0.3465 -0.1450
  752PNCE   C6B 6784  15.340  10.522   6.970  0.1016 -0.0059 -0.1793
  753PNCE   AM1 6785   9.812   0.823   5.479  0.0047 -0.1280 -0.2560
  753PNCE   AM2 6786   9.498   0.788   5.324  0.1040 -0.1126 -0.1135
  753PNCE   T1A 6787  10.132   0.613   5.721 -0.0199  0.1257  0.1113
  753PNCE   C2A 6788  10.287   0.833   6.103  0.5850 -0.0338  0.2704
  753PNCE   C3A 6789  10.504   0.913   6.436  0.1108  0.0693  0.3631
  753PNCE   C1B 6790   9.450   0.629   5.790 -0.1031  0.1508 -0.0732
  753PNCE   C2B 6791   9.155   0.863   6.107  0.1485 -0.0242  0.0789
  753PNCE   C3B 6792   9.083   0.981   6.575 -0.2209  0.2087  0.0654
  753PNCE   D4B 6793   9.246   0.975   6.878 -0.0519  0.4162  0.0397
  753PNCE   C5B 6794   9.346   0.984   7.257 -0.3044  0.0217 -0.1376
  753PNCE   C6B 6795   9.150   0.956   7.719  0.3172 -0.1212  0.0737
  754XCA    COO 6796   8.746   4.411   4.683 -0.0630  0.2468 -0.0791
  754XCA     C1 6797   8.974   4.189   5.045 -0.1508  0.0438 -0.1275
  754XCA     C2 6798   8.947   4.039   5.398 -0.0415 -0.2885  0.0124
  754XCA     C3 6799   8.830   3.864   5.790  0.0512 -0.0692 -0.0233
  754XCA     C4 6800   8.927   3.556   6.129 -0.0097  0.2432 -0.0763
  754XCA     C5 6801   8.721   3.545   6.471  0.0487 -0.0389  0.1293
  754XCA     C6 6802   8.688   3.744   6.852 -0.1936 -0.1289 -0.2100
  755PNCE   AM1 6803   4.195   1.055   4.439 -0.1642 -0.0142  0.2088
  755PNCE   AM2 6804   3.978   0.951   4.652 -0.1984  0.0549  0.2332
  755PNCE   T1A 6805   4.334   1.317   4.813  0.1452  0.3577 -0.0351
  755PNCE   C2A 6806   4.383   1.463   5.232 -0.1996 -0.0213  0.1539
  755PNCE   C3A 6807   4.374   1.829   5.588 -0.0298 -0.0173  0.0186
  755PNCE   C1B 6808   3.779   0.819   5.017 -0.1548  0.0049  0.2711
  755PNCE   C2B 6809   3.642   1.009   5.512 -0.0096  0.1914  0.0129
  755PNCE   C3B 6810   3.684   1.072   5.933  0.1178 -0.1656  0.1087
  755PNCE   D4B 6811   3.917   1.224   6.327  0.1267  0.0016  0.1661
  755PNCE   C5B 6812   3.729   1.104   6.705 -0.0313 -0.0162 -0.1010
  755PNCE   C6B 6813   3.889   0.975   7.072 -0.2041 -0.0612 -0.2831
  756CHOL   ROH 6814   8.918   7.033   4.777 -0.0306  0.0926  0.0539
  756CHOL    R1 6815   8.922   7.065   5.058  0.1678 -0.0855  0.0733
  756CHOL    R2 6816   9.155   7.058   5.205  0.3091  0.1441 -0.1373
  756CHOL    R3 6817   9.067   7.299   5.296  0.0471 -0.0324  0.0970
  756CHOL    R4 6818   9.265   7.211   5.495  0.5575  0.2215 -0.2694
  756CHOL    R5 6819   9.059   7.273   5.535  0.5049 -0.1422  0.1116
  756CHOL    C1 6820   9.247   7.527   5.749  0.4562  0.1009 -0.1263
  756CHOL    C2 6821   9.497   7.691   5.948  0.0585  0.0010 -0.1303
  757CHOL   ROH 6822   7.755  13.016   5.887 -0.3509  0.0907 -0.1231
  757CHOL    R1 6823   7.761  13.228   6.075 -0.2362  0.1099 -0.1472
  757CHOL    R2 6824   7.545  13.395   6.118 -0.1951  0.1446 -0.0648
  757CHOL    R3 6825   7.579  13.319   6.377 -0.0864  0.1657 -0.0731
  757CHOL    R4 6826   7.401  13.551   6.391 -0.0226  0.2107 -0.0111
  757CHOL    R5 6827   7.589  13.525   6.499  0.0241  0.1770 -0.1005
  757CHOL    C1 6828   7.350  13.571   6.792  0.1798  0.2691  0.0124
  757CHOL    C2 6829   7.068  13.612   6.930  0.2228  0.0169 -0.1753
  758CHOL   ROH 6830  10.185  12.079   7.766  0.0573  0.0204  0.0285
  758CHOL    R1 6831  10.391  12.234   7.650 -0.0949  0.0826 -0.1629
  758CHOL    R2 6832  10.658  12.201   7.715 -0.0577  0.4102 -0.1348
  758CHOL    R3 6833  10.686  12.171   7.446 -0.0454  0.1237 -0.1051
  758CHOL    R4 6834  10.946  12.271   7.538 -0.0387  0.1992 -0.1896
  758CHOL    R5 6835  10.823  12.356   7.380 -0.0235  0.0462 -0.2906
  758CHOL    C1 6836  11.141  12.284   7.182 -0.0161 -0.1927 -0.1936
  758CHOL    C2 6837  11.489  12.708   7.132 -0.1485  0.5324  0.0715
  759CHOL   ROH 6838   9.119   7.659   6.771  0.1185 -0.0403  0.0074
  759CHOL    R1 6839   8.864   7.539   6.755  0.0587  0.0751  0.0740
  759CHOL    R2 6840   8.629   7.681   6.788  0.1258  0.2178 -0.0443
  759CHOL    R3 6841   8.568   7.574   6.546  0.0932  0.0765  0.0258
  759CHOL    R4 6842   8.309   7.617   6.676  0.1114  0.1538  0.0327
  759CHOL    R5 6843   8.381   7.431   6.590  0.0979  0.1035  0.1325
  759CHOL    C1 6844   8.065   7.479   6.383  0.0723 -0.0161  0.1432
  759CHOL    C2 6845   7.843   7.180   6.205  0.0612  0.3067  0.0232
  760CHOL   ROH 6846   2.521  10.077   6.901  0.2436 -0.1254 -0.3882
  760CHOL    R1 6847   2.679  10.269   7.038 -0.0475 -0.0785 -0.1078
  760CHOL    R2 6848   2.917  10.365   6.937  0.0407  0.0882  0.2483
  760CHOL    R3 6849   2.798  10.607   6.974 -0.1457  0.0115  0.1672
  760CHOL    R4 6850   3.080  10.669   6.920 -0.1445  0.1956  0.3578
  760CHOL    R5 6851   2.962  10.736   7.091 -0.3073  0.1207  0.2801
  760CHOL    C1 6852   3.063  11.074   6.945 -0.4275  0.1861  0.3454
  760CHOL    C2 6853   3.304  11.357   7.121  0.2391  0.1247 -0.0918
  761CHOL   ROH 6854   2.386   0.444   7.982  0.0795 -0.1706 -0.1803
  761CHOL    R1 6855   2.516   0.619   7.802 -0.0180 -0.0306 -0.1187
  761CHOL    R2 6856   2.429   0.657   7.542 -0.0020 -0.0369 -0.1289
  761CHOL    R3 6857   2.430   0.919   7.615 -0.2127 -0.0529 -0.0650
  761CHOL    R4 6858   2.396   0.923   7.324  0.2366  0.0008 -0.1203
  761CHOL    R5 6859   2.548   1.029   7.438  0.0214  0.0324  0.1413
  761CHOL    C1 6860   2.378   1.324   7.265  0.1776  0.0078 -0.0553
  761CHOL    C2 6861   2.603   1.648   7.063  0.3498 -0.0942  0.1287
  762PNCE   AM1 6862  13.814  13.887   4.908 -0.0724  0.2923 -0.2153
  762PNCE   AM2 6863  14.196  13.888   5.003 -0.0088  0.0972  0.1833
  762PNCE   T1A 6864  13.824  13.853   5.413  0.0087  0.1867  0.0210
  762PNCE   C2A 6865  13.850  13.994   5.772 -0.0292  0.1146  0.2459
  762PNCE   C3A 6866  14.073  14.032   6.175 -0.0527  0.2037  0.2416
  762PNCE   C1B 6867  14.499  14.070   4.971  0.2624 -0.0895  0.0482
  762PNCE   C2B 6868  14.735  14.131   5.247  0.0868  0.1638  0.1583
  762PNCE   C3B 6869  14.796  14.410   5.594 -0.1401  0.0140 -0.3505
  762PNCE   D4B 6870  15.092  14.473   5.814 -0.2273 -0.0223  0.1914
  762PNCE   C5B 6871  14.996  14.566   6.166 -0.0830  0.0592 -0.3918
  762PNCE   C6B 6872  14.998  14.585   6.625  0.3391  0.1017 -0.0156
  763PNCE   AM1 6873  13.504   6.369   3.847 -0.0862 -0.1611  0.1554
  763PNCE   AM2 6874  13.334   6.105   3.971  0.0936 -0.3984  0.0883
  763PNCE   T1A 6875  13.817   6.510   4.248  0.2271  0.0492  0.1287
  763PNCE   C2A 6876  13.878   6.568   4.762 -0.0603  0.2407 -0.1185
  763PNCE   C3A 6877  14.057   6.419   5.196  0.1405  0.1483 -0.1450
  763PNCE   C1B 6878  13.106   6.316   4.097  0.3414 -0.0398 -0.1999
  763PNCE   C2B 6879  12.736   6.407   4.199  0.0072 -0.1020  0.0343
  763PNCE   C3B 6880  12.455   6.512   4.512  0.1545  0.1056 -0.2536
  763PNCE   D4B 6881  12.503   6.533   5.002  0.1180  0.2440 -0.1126
  763PNCE   C5B 6882  12.064   6.646   5.191  0.1796 -0.1495  0.0399
  763PNCE   C6B 6883  11.657   6.517   5.244  0.0684  0.2995 -0.2222
  764CHOL   ROH 6884   8.951   1.344   5.755 -0.1625  0.1021 -0.0514
  764CHOL    R1 6885   8.991   1.479   6.000 -0.0231  0.1323 -0.0904
  764CHOL    R2 6886   9.029   1.346   6.239 -0.3220  0.1567 -0.0243
  764CHOL    R3 6887   9.254   1.499   6.251 -0.0701 -0.2039 -0.0114
  764CHOL    R4 6888   9.171   1.467   6.530 -0.2239  0.0521 -0.0281
  764CHOL    R5 6889   9.211   1.655   6.427  0.1231 -0.0534 -0.0953
  764CHOL    C1 6890   9.465   1.680   6.711  0.0697 -0.3473 -0.0182
  764CHOL    C2 6891   9.287   1.550   7.063 -0.2066  0.2817 -0.0459
  765PNCE   AM1 6892   5.135  15.460   4.729 -0.1109 -0.1026 -0.0991
  765PNCE   AM2 6893   4.808  15.522   4.636  0.2330  0.2215  0.0528
  765PNCE   T1A 6894   5.550  15.467   5.053 -0.2996  0.0287 -0.0656
  765PNCE   C2A 6895   5.899  15.503   5.345 -0.2858 -0.0447  0.3854
  765PNCE   C3A 6896   6.234  15.197   5.472  0.0642 -0.0828  0.1322
  765PNCE   C1B 6897   4.750  15.793   5.073 -0.2992 -0.0457  0.1380
  765PNCE   C2B 6898   4.698  16.034   5.447  0.0586 -0.1806  0.3863
  765PNCE   C3B 6899   4.367  16.272   5.656 -0.0023 -0.2081  0.2924
  765PNCE   D4B 6900   4.056  16.653   5.757 -0.0293  0.1892 -0.0688
  765PNCE   C5B 6901   4.152  16.939   5.910 -0.0818 -0.2624  0.0812
  765PNCE   C6B 6902   4.261  17.280   6.054 -0.2888  0.1303  0.1191
  766PNCE   AM1 6903   5.035   7.137   4.146 -0.4284 -0.1574  0.1170
  766PNCE   AM2 6904   4.907   6.807   4.293  0.0275  0.1681 -0.0389
  766PNCE   T1A 6905   5.338   6.920   4.551  0.0921  0.1607  0.3147
  766PNCE   C2A 6906   5.557   7.007   4.902 -0.3264 -0.0063  0.0015
  766PNCE   C3A 6907   5.533   7.253   5.253 -0.3516  0.1966 -0.3017
  766PNCE   C1B 6908   4.922   6.492   4.634 -0.0972 -0.2157  0.0149
  766PNCE   C2B 6909   5.266   6.537   5.005  0.2945 -0.0145  0.2774
  766PNCE   C3B 6910   5.434   6.382   5.390  0.1488 -0.0364  0.0997
  766PNCE   D4B 6911   5.639   6.041   5.526 -0.0137 -0.1673  0.3052
  766PNCE   C5B 6912   5.849   6.032   5.896  0.0692  0.2747  0.1946
  766PNCE   C6B 6913   6.279   5.907   5.986  0.4062 -0.0912 -0.2155
  767CHOL   ROH 6914   9.869   2.670   5.197  0.1399 -0.0440  0.1521
  767CHOL    R1 6915   9.945   2.855   5.397  0.0366  0.0394  0.1163
  767CHOL    R2 6916   9.787   2.908   5.618  0.0124 -0.0193  0.1204
  767CHOL    R3 6917  10.013   2.844   5.754  0.0622  0.1396  0.1127
  767CHOL    R4 6918   9.845   2.983   5.950  0.0035  0.0553  0.1050
  767CHOL    R5 6919  10.051   3.032   5.898 -0.0370  0.1747  0.0850
  767CHOL    C1 6920  10.090   2.966   6.272  0.0452  0.2479  0.0887
  767CHOL    C2 6921  10.171   2.988   6.687  0.0867 -0.1828 -0.0106
  768XCA    COO 6922   6.780   6.590   4.492 -0.0310  0.0618  0.0609
  768XCA     C1 6923   6.971   6.482   4.876  0.1587 -0.0573  0.4299
  768XCA     C2 6924   6.991   6.342   5.310 -0.2373 -0.4179  0.0889
  768XCA     C3 6925   6.995   6.277   5.755 -0.1750 -0.0623 -0.0438
  768XCA     C4 6926   7.022   6.355   6.250  0.2527 -0.0405  0.2882
  768XCA     C5 6927   7.047   6.335   6.686  0.1305 -0.0780  0.0656
  768XCA     C6 6928   7.055   6.254   7.093  0.0769  0.1200  0.1054
  769XCA    COO 6929  13.001  11.674   8.861  0.4013  0.1833  0.0623
  769XCA     C1 6930  12.990  11.827   8.446  0.1532 -0.2199  0.0890
  769XCA     C2 6931  13.266  11.977   8.250 -0.1692 -0.1060 -0.2603
  769XCA     C3 6932  13.349  12.344   7.894  0.1716 -0.1119  0.0515
  769XCA     C4 6933  12.951  12.527   7.563 -0.1803 -0.0780 -0.1300
  769XCA     C5 6934  12.864  12.965   7.453  0.0071  0.2370 -0.2025
  769XCA     C6 6935  12.780  13.124   7.028 -0.0696  0.3363  0.1290
  770PNCE   AM1 6936   8.878   0.052   5.172 -0.4723 -0.4284 -0.0097
  770PNCE   AM2 6937   9.136   0.365   5.199  0.2941  0.1537 -0.3031
  770PNCE   T1A 6938   8.754  -0.346   5.373 -0.0546  0.1074 -0.2745
  770PNCE   C2A 6939   8.751  -0.448   5.743  0.2742  0.2637 -0.0107
  770PNCE   C3A 6940   8.749  -0.532   6.103  0.1424  0.2607 -0.2346
  770PNCE   C1B 6941   8.950   0.229   5.635  0.4099 -0.2038  0.1538
  770PNCE   C2B 6942   9.068  -0.115   5.923 -0.1831  0.1779 -0.1873
  770PNCE   C3B 6943   9.426  -0.249   6.157 -0.0435 -0.1455 -0.3054
  770PNCE   D4B 6944   9.681  -0.050   6.511 -0.3001  0.0161  0.2630
  770PNCE   C5B 6945   9.528   0.237   6.774  0.2230  0.0146 -0.1249
  770PNCE   C6B 6946   9.715   0.555   6.943 -0.1319 -0.1088  0.0486
  771PNCE   AM1 6947  11.946  10.704   4.726  0.0760 -0.1228 -0.1099
  771PNCE   AM2 6948  12.048  11.044   4.854 -0.0423 -0.0920  0.2504
  771PNCE   T1A 6949  11.660  10.543   4.906  0.2033 -0.2443 -0.1512
  771PNCE   C2A 6950  11.581  10.146   5.064  0.0345 -0.4831  0.2079
  771PNCE   C3A 6951  11.415   9.722   5.070  0.1078 -0.5273 -0.2340
  771PNCE   C1B 6952  12.172  11.154   5.221  0.0228  0.3075  0.0652
  771PNCE   C2B 6953  11.973  11.207   5.618 -0.4178 -0.1207 -0.1398
  771PNCE   C3B 6954  12.265  11.132   5.933 -0.0903 -0.3153 -0.0017
  771PNCE   D4B 6955  12.250  11.372   6.358  0.2290  0.1756  0.0352
  771PNCE   C5B 6956  12.637  11.557   6.358  0.0213  0.1551  0.2746
  771PNCE   C6B 6957  12.986  11.607   6.718 -0.2234 -0.0082  0.1426
  772CHOL   ROH 6958   5.834   4.070   4.613  0.0909  0.0170 -0.1083
  772CHOL    R1 6959   5.866   3.938   4.861  0.0624 -0.0220 -0.1250
  772CHOL    R2 6960   6.038   4.031   5.057  0.0592 -0.0657 -0.0991
  772CHOL    R3 6961   5.814   4.019   5.212  0.0469 -0.0667 -0.1174
  772CHOL    R4 6962   6.035   3.975   5.398  0.0174 -0.2373 -0.1264
  772CHOL    R5 6963   5.861   3.848   5.372 -0.0238 -0.1628 -0.2007
  772CHOL    C1 6964   5.824   3.932   5.742 -0.0185 -0.3380 -0.1595
  772CHOL    C2 6965   6.007   3.736   6.108 -0.0583 -0.2331  0.2258
  773PNCE   AM1 6966   6.727   7.756   4.555 -0.0111  0.0970 -0.0965
  773PNCE   AM2 6967   6.602   8.020   4.552 -0.0341  0.3278 -0.0326
  773PNCE   T1A 6968   6.850   7.507   4.821  0.6655  0.2596 -0.3726
  773PNCE   C2A 6969   7.034   7.319   5.191 -0.0251 -0.0293  0.1380
  773PNCE   C3A 6970   7.136   7.413   5.517 -0.1442  0.0603 -0.1439
  773PNCE   C1B 6971   6.849   7.973   5.065  0.1149  0.0024  0.2907
  773PNCE   C2B 6972   6.846   7.885   5.486  0.0631 -0.0940  0.2107
  773PNCE   C3B 6973   6.927   7.752   5.879  0.0022  0.0070  0.3437
  773PNCE   D4B 6974   7.141   7.965   6.079  0.2069  0.3855 -0.0257
  773PNCE   C5B 6975   7.175   7.871   6.442  0.0775  0.1867 -0.4433
  773PNCE   C6B 6976   6.940   7.491   6.724 -0.0263 -0.1198 -0.1617
  774CHOL   ROH 6977   5.816   0.800   8.396  0.0067 -0.1166 -0.0774
  774CHOL    R1 6978   5.760   0.634   8.174 -0.0247 -0.1206 -0.0675
  774CHOL    R2 6979   5.834   0.700   7.916  0.0021 -0.1576 -0.0723
  774CHOL    R3 6980   5.954   0.456   7.922 -0.0561 -0.1849 -0.0456
  774CHOL    R4 6981   5.898   0.504   7.638  0.0596 -0.1542 -0.0607
  774CHOL    R5 6982   5.840   0.329   7.754 -0.0221 -0.1475 -0.0951
  774CHOL    C1 6983   6.048   0.161   7.482  0.0385 -0.1779 -0.0288
  774CHOL    C2 6984   5.896  -0.299   7.336 -0.3133 -0.3851 -0.0158
  775CHOL   ROH 6985   1.418   7.966   5.993  0.1967 -0.0992 -0.2406
  775CHOL    R1 6986   1.548   7.879   6.229  0.1568 -0.1768 -0.2479
  775CHOL    R2 6987   1.423   7.878   6.475  0.2489  0.1417 -0.2009
  775CHOL    R3 6988   1.498   7.616   6.476 -0.1478  0.0202 -0.0912
  775CHOL    R4 6989   1.435   7.677   6.756  0.4678  0.4180 -0.0064
  775CHOL    R5 6990   1.620   7.591   6.681  0.2088  0.0549 -0.2858
  775CHOL    C1 6991   1.512   7.315   6.921  0.2229  0.4647  0.2099
  775CHOL    C2 6992   1.496   6.906   6.961  0.1699  0.0220  0.0563
  776CHOL   ROH 6993   9.248   4.561   7.944 -0.2662 -0.1894  0.0591
  776CHOL    R1 6994   9.241   4.347   7.758 -0.1840 -0.2573  0.1339
  776CHOL    R2 6995   9.454   4.286   7.594 -0.2678 -0.0373 -0.0603
  776CHOL    R3 6996   9.426   4.039   7.703  0.1534 -0.0447  0.0488
  776CHOL    R4 6997   9.487   3.989   7.420 -0.3404 -0.0434 -0.0648
  776CHOL    R5 6998   9.317   3.911   7.532 -0.0654 -0.1726  0.2781
  776CHOL    C1 6999   9.480   3.584   7.421  0.0126 -0.0539  0.0350
  776CHOL    C2 7000   9.393   3.266   7.334  0.1261  0.2708 -0.1369
  777CHOL   ROH 7001   0.848   3.377   8.454 -0.0255 -0.0331  0.0196
  777CHOL    R1 7002   1.130   3.355   8.443 -0.0245 -0.0856  0.1199
  777CHOL    R2 7003   1.261   3.112   8.438 -0.0766 -0.1149 -0.0454
  777CHOL    R3 7004   1.375   3.214   8.214  0.0380  0.0658  0.0933
  777CHOL    R4 7005   1.577   3.031   8.324 -0.0701 -0.1198 -0.0229
  777CHOL    R5 7006   1.606   3.241   8.272  0.0284 -0.0798  0.1959
  777CHOL    C1 7007   1.869   3.081   8.047  0.0412  0.0471  0.1206
  777CHOL    C2 7008   2.294   3.276   7.880  0.2775 -0.2181 -0.1951
  778PNCE   AM1 7009   1.132   4.802   4.494 -0.2114  0.0738  0.2431
  778PNCE   AM2 7010   1.302   5.162   4.429  0.1900 -0.1196 -0.1747
  778PNCE   T1A 7011   0.943   4.853   5.007  0.1743 -0.0788 -0.1669
  778PNCE   C2A 7012   0.711   4.722   5.336  0.0254  0.2623 -0.1518
  778PNCE   C3A 7013   0.424   4.478   5.459  0.2339 -0.2000  0.0836
  778PNCE   C1B 7014   1.580   5.406   4.687  0.0491  0.1833 -0.0587
  778PNCE   C2B 7015   1.540   5.503   5.152  0.0269  0.0556 -0.0827
  778PNCE   C3B 7016   1.253   5.712   5.486  0.0425  0.1001  0.0608
  778PNCE   D4B 7017   1.018   5.468   5.835 -0.1557  0.0344 -0.1291
  778PNCE   C5B 7018   0.964   5.045   5.640  0.1916 -0.0244 -0.1201
  778PNCE   C6B 7019   1.211   4.890   5.867  0.1853  0.0735  0.1896
  779XCA    COO 7020   6.559  14.402   8.522 -0.1167 -0.0245 -0.2006
  779XCA     C1 7021   6.447  14.512   8.090 -0.2676 -0.1359  0.0273
  779XCA     C2 7022   6.611  14.762   7.733  0.3059  0.0988 -0.1385
  779XCA     C3 7023   6.737  14.937   7.371 -0.2275 -0.1902 -0.0352
  779XCA     C4 7024   6.812  15.430   7.285  0.3038 -0.0502  0.0108
  779XCA     C5 7025   6.797  15.808   7.160 -0.0626 -0.0253  0.1356
  779XCA     C6 7026   7.181  16.227   7.176  0.2222  0.1837  0.1832
  780PNCE   AM1 7027  15.314   3.403   4.518  0.5575  0.1185  0.0577
  780PNCE   AM2 7028  15.510   3.645   4.630 -0.0741  0.3020  0.1294
  780PNCE   T1A 7029  14.970   3.556   4.827  0.1196 -0.1365  0.0488
  780PNCE   C2A 7030  14.549   3.488   5.225 -0.2272 -0.2990  0.1805
  780PNCE   C3A 7031  14.424   3.124   5.533  0.1129 -0.0537 -0.1017
  780PNCE   C1B 7032  15.369   3.507   5.052 -0.0851 -0.3224  0.1529
  780PNCE   C2B 7033  15.020   3.577   5.377 -0.0179  0.1391  0.0523
  780PNCE   C3B 7034  14.918   3.923   5.783  0.1290 -0.1301  0.4302
  780PNCE   D4B 7035  14.650   3.910   6.064 -0.2069 -0.3740 -0.2561
  780PNCE   C5B 7036  14.750   3.623   6.379  0.2815  0.0624 -0.0002
  780PNCE   C6B 7037  14.882   3.197   6.538 -0.1764  0.0670  0.1225
  781PNCE   AM1 7038   5.736  13.986   5.348 -0.1082  0.2355 -0.1638
  781PNCE   AM2 7039   5.850  13.994   4.989  0.0003 -0.3293  0.0649
  781PNCE   T1A 7040   5.348  13.765   5.464  0.1287 -0.1916  0.1504
  781PNCE   C2A 7041   5.267  13.645   5.807  0.1197  0.1133 -0.1090
  781PNCE   C3A 7042   5.165  13.451   6.232 -0.0419 -0.0565 -0.0479
  781PNCE   C1B 7043   5.491  13.716   4.953  0.0221  0.0497 -0.0764
  781PNCE   C2B 7044   5.149  13.419   5.183  0.3184 -0.1497  0.3596
  781PNCE   C3B 7045   4.946  12.996   5.307  0.0639 -0.1229 -0.0073
  781PNCE   D4B 7046   4.894  12.690   5.440  0.2316  0.0233 -0.0030
  781PNCE   C5B 7047   4.928  12.306   5.183 -0.1880  0.0127 -0.0322
  781PNCE   C6B 7048   5.194  11.963   5.048  0.1528 -0.3435  0.0467
  782PNCE   AM1 7049  14.920   1.773   4.189  0.0486 -0.0192  0.1945
  782PNCE   AM2 7050  14.730   1.744   4.428  0.2159  0.4435  0.1594
  782PNCE   T1A 7051  15.009   2.066   4.552  0.0353  0.3102  0.4638
  782PNCE   C2A 7052  15.028   1.956   5.014 -0.1199 -0.2767  0.0400
  782PNCE   C3A 7053  15.176   1.753   5.378  0.2950  0.2275 -0.1110
  782PNCE   C1B 7054  14.711   1.432   4.672  0.1965 -0.0662  0.0829
  782PNCE   C2B 7055  14.681   1.274   5.050  0.0483  0.0130 -0.0715
  782PNCE   C3B 7056  14.508   1.094   5.456 -0.2092 -0.1666 -0.3567
  782PNCE   D4B 7057  14.528   1.011   5.863 -0.2435  0.2742  0.3372
  782PNCE   C5B 7058  14.792   1.064   6.168  0.1547  0.1162  0.1750
  782PNCE   C6B 7059  14.830   0.793   6.474 -0.1126 -0.1280 -0.0952
  783PNCE   AM1 7060   5.392   9.868   4.973 -0.2043 -0.0193  0.2929
  783PNCE   AM2 7061   5.695   9.993   4.954 -0.2713  0.4905 -0.0506
  783PNCE   T1A 7062   5.406   9.747   5.342  0.2626 -0.0921  0.2480
  783PNCE   C2A 7063   5.661   9.796   5.703  0.2885  0.0182 -0.2080
  783PNCE   C3A 7064   5.909   9.865   6.134  0.0165 -0.0815 -0.1372
  783PNCE   C1B 7065   5.835   9.618   5.181  0.4124  0.2114  0.0447
  783PNCE   C2B 7066   5.791   9.290   5.433 -0.2137  0.1959 -0.0312
  783PNCE   C3B 7067   5.886   9.365   5.860  0.1859 -0.0232 -0.0582
  783PNCE   D4B 7068   6.032   9.362   6.283  0.1852  0.1735  0.0968
  783PNCE   C5B 7069   5.839   9.551   6.576 -0.4656 -0.1636  0.1427
  783PNCE   C6B 7070   5.965   9.380   6.858 -0.3312 -0.0483 -0.1168
  784CHOL   ROH 7071  14.019  14.748   5.334  0.0120  0.0049  0.1486
  784CHOL    R1 7072  13.974  15.025   5.299  0.0463 -0.0197 -0.1167
  784CHOL    R2 7073  14.018  15.209   5.501 -0.1980  0.1342 -0.1992
  784CHOL    R3 7074  14.173  15.329   5.312  0.0267 -0.0072 -0.1085
  784CHOL    R4 7075  14.220  15.483   5.558 -0.0017 -0.0313 -0.0880
  784CHOL    R5 7076  14.159  15.562   5.364  0.1898  0.0095 -0.1342
  784CHOL    C1 7077  14.484  15.755   5.414  0.3236 -0.2603  0.0619
  784CHOL    C2 7078  14.690  16.145   5.447  0.2862  0.0235 -0.1331
  785PNCE   AM1 7079   9.919   6.178   3.942 -0.2006 -0.3410  0.0878
  785PNCE   AM2 7080  10.103   6.045   3.779 -0.2471  0.0208 -0.1190
  785PNCE   T1A 7081   9.969   6.150   4.403 -0.0052  0.0149  0.5237
  785PNCE   C2A 7082  10.277   5.992   4.725  0.1242 -0.3324 -0.3035
  785PNCE   C3A 7083  10.771   5.779   4.896 -0.0562  0.1535  0.2357
  785PNCE   C1B 7084  10.396   6.252   4.063 -0.1418  0.2476 -0.0066
  785PNCE   C2B 7085  10.667   6.632   4.141 -0.1705  0.3694 -0.0134
  785PNCE   C3B 7086  10.967   6.913   4.411  0.0409  0.1204  0.0232
  785PNCE   D4B 7087  10.967   7.021   4.843  0.3592 -0.0631  0.0651
  785PNCE   C5B 7088  10.872   6.869   5.266 -0.2931 -0.0687  0.0534
  785PNCE   C6B 7089  11.011   6.921   5.665 -0.2388  0.1831  0.0975
  786XCA    COO 7090  15.707  11.723   8.519  0.0108  0.0141  0.1849
  786XCA     C1 7091  15.917  11.717   8.111 -0.2377  0.0818  0.2694
  786XCA     C2 7092  15.842  11.747   7.701 -0.2943 -0.3815  0.0201
  786XCA     C3 7093  15.903  11.670   7.315 -0.1521  0.0591 -0.2753
  786XCA     C4 7094  15.982  11.511   6.901  0.0252  0.1237  0.1265
  786XCA     C5 7095  15.673  11.300   6.637  0.1171 -0.1223  0.0619
  786XCA     C6 7096  15.640  10.999   6.426  0.1741  0.0019 -0.0073
  787CHOL   ROH 7097   0.381   5.899   5.478 -0.1874 -0.0120  0.1035
  787CHOL    R1 7098   0.231   5.871   5.717 -0.2763 -0.1567  0.0339
  787CHOL    R2 7099   0.173   5.625   5.829  0.1333 -0.2141  0.1497
  787CHOL    R3 7100   0.286   5.736   6.050 -0.1967  0.1493  0.1458
  787CHOL    R4 7101   0.097   5.538   6.155  0.1066 -0.1212  0.1676
  787CHOL    R5 7102   0.107   5.750   6.208 -0.3114 -0.0644  0.0299
  787CHOL    C1 7103   0.158   5.592   6.551 -0.2187  0.2742  0.1743
  787CHOL    C2 7104   0.032   5.599   6.946 -0.3714  0.2516 -0.1862
  788CHOL   ROH 7105  11.818  14.302   5.074 -0.1933 -0.1189 -0.1050
  788CHOL    R1 7106  11.688  14.291   5.326 -0.1407 -0.0768 -0.0746
  788CHOL    R2 7107  11.498  14.100   5.387 -0.1156 -0.0832  0.0070
  788CHOL    R3 7108  11.661  14.053   5.599 -0.0624 -0.0229 -0.0215
  788CHOL    R4 7109  11.392  13.989   5.697 -0.0077 -0.1672  0.0133
  788CHOL    R5 7110  11.535  14.126   5.789 -0.0659 -0.1085  0.0043
  788CHOL    C1 7111  11.484  13.879   6.076  0.1051 -0.1597 -0.0099
  788CHOL    C2 7112  11.469  13.591   6.430  0.2282  0.1909  0.0739
  789XCA    COO 7113  13.313   0.127   4.787  0.2407  0.0052  0.0685
  789XCA     C1 7114  13.478   0.122   5.214 -0.1716 -0.0333  0.1456
  789XCA     C2 7115  13.692  -0.130   5.532 -0.0415 -0.1487 -0.3446
  789XCA     C3 7116  13.808  -0.304   5.946 -0.1343  0.1483  0.0899
  789XCA     C4 7117  13.864  -0.489   6.375 -0.0624  0.0510  0.0394
  789XCA     C5 7118  14.129  -0.874   6.486 -0.0709 -0.1798 -0.0099
  789XCA     C6 7119  14.375  -1.132   6.637  0.2814  0.0536  0.1126
  790XCA    COO 7120  10.324   8.004   3.615 -0.1579  0.1646  0.1295
  790XCA     C1 7121  10.800   8.037   3.766 -0.0422 -0.0551 -0.1379
  790XCA     C2 7122  11.238   7.967   4.050 -0.2079  0.0822  0.0421
  790XCA     C3 7123  11.331   7.892   4.406  0.1808 -0.2560  0.3316
  790XCA     C4 7124  11.373   7.726   4.782 -0.0889  0.1619 -0.2887
  790XCA     C5 7125  11.538   7.503   5.134 -0.2151 -0.2824 -0.1865
  790XCA     C6 7126  11.619   7.748   5.491 -0.0758 -0.0818 -0.4167
  791CHOL   ROH 7127  14.488   9.609   8.478  0.0563 -0.1626  0.3173
  791CHOL    R1 7128  14.617   9.731   8.258 -0.0988 -0.1873  0.2120
  791CHOL    R2 7129  14.870   9.841   8.275 -0.1660 -0.0119  0.0715
  791CHOL    R3 7130  14.922   9.675   8.066 -0.1265 -0.0814  0.1352
  791CHOL    R4 7131  15.162   9.843   8.090 -0.1067 -0.1068  0.1624
  791CHOL    R5 7132  15.042   9.812   7.910 -0.0575 -0.1416  0.1320
  791CHOL    C1 7133  15.380   9.688   7.786 -0.0349 -0.2274  0.2750
  791CHOL    C2 7134  15.648   9.434   7.898 -0.4506 -0.0250 -0.0149
  792PNCE   AM1 7135   5.198   9.023   4.844 -0.0276 -0.1030 -0.0147
  792PNCE   AM2 7136   4.939   9.112   4.941  0.0646  0.0049  0.0600
  792PNCE   T1A 7137   5.302   9.290   5.242  0.1028 -0.3416  0.2609
  792PNCE   C2A 7138   5.351   9.311   5.690  0.0252  0.2045  0.1533
  792PNCE   C3A 7139   5.431   8.953   5.953  0.1128 -0.1919 -0.1457
  792PNCE   C1B 7140   5.017   8.896   5.270 -0.1195 -0.0903 -0.2275
  792PNCE   C2B 7141   4.969   8.810   5.698 -0.4077  0.1732 -0.0026
  792PNCE   C3B 7142   4.990   8.558   5.976  0.0746  0.1635 -0.0714
  792PNCE   D4B 7143   5.185   8.180   6.057  0.0359 -0.0545  0.0907
  792PNCE   C5B 7144   5.492   8.115   6.368  0.3450  0.1414 -0.2703
  792PNCE   C6B 7145   5.980   8.109   6.328  0.1416 -0.1123 -0.3380
  793XCA    COO 7146  12.830   9.413   4.176  0.2582  0.1439  0.2747
  793XCA     C1 7147  12.942   9.459   4.567  0.0142 -0.0545  0.0731
  793XCA     C2 7148  12.549   9.420   4.816  0.1781 -0.2092  0.1521
  793XCA     C3 7149  12.229   9.511   4.994 -0.0853  0.1112 -0.1269
  793XCA     C4 7150  11.948   9.572   5.437 -0.1453  0.3029 -0.0116
  793XCA     C5 7151  11.723   9.892   5.519  0.0610 -0.2823  0.0117
  793XCA     C6 7152  11.427  10.079   5.817 -0.1029  0.0072 -0.2312
  794CHOL   ROH 7153   8.969   3.726   5.100 -0.1457 -0.2375 -0.0290
  794CHOL    R1 7154   8.696   3.769   5.164 -0.1242 -0.1519 -0.0003
  794CHOL    R2 7155   8.586   3.693   5.406 -0.0862  0.0114  0.0592
  794CHOL    R3 7156   8.510   3.954   5.416 -0.0491  0.0296 -0.0718
  794CHOL    R4 7157   8.302   3.810   5.565  0.0168  0.1304  0.1593
  794CHOL    R5 7158   8.271   3.947   5.398 -0.0695  0.0289  0.0748
  794CHOL    C1 7159   8.066   4.123   5.667  0.1117  0.2168  0.0946
  794CHOL    C2 7160   7.989   4.207   6.031  0.0479 -0.2937 -0.0087
  795PNCE   AM1 7161   5.429   4.175   4.961  0.2293 -0.1840  0.0392
  795PNCE   AM2 7162   5.412   3.856   4.788 -0.0952 -0.0767 -0.1988
  795PNCE   T1A 7163   5.839   4.506   5.169 -0.0670 -0.1223 -0.0451
  795PNCE   C2A 7164   6.076   4.542   5.474  0.1038  0.0230 -0.2329
  795PNCE   C3A 7165   6.524   4.437   5.538 -0.0270 -0.2653 -0.0494
  795PNCE   C1B 7166   5.646   3.554   5.115 -0.3311 -0.0153 -0.0101
  795PNCE   C2B 7167   5.623   3.423   5.623 -0.0036 -0.1646 -0.1116
  795PNCE   C3B 7168   5.512   3.569   5.983  0.1187  0.0330  0.0689
  795PNCE   D4B 7169   5.538   4.005   6.118 -0.1351 -0.0957 -0.0344
  795PNCE   C5B 7170   5.317   4.338   5.980 -0.2810 -0.2790 -0.1108
  795PNCE   C6B 7171   5.199   4.665   6.288  0.0228 -0.0375 -0.1237
  796XCA    COO 7172   9.470   2.555   5.353  0.0592 -0.0318 -0.2722
  796XCA     C1 7173   9.534   2.584   5.766  0.2568  0.2341 -0.0860
  796XCA     C2 7174   9.799   2.634   6.200  0.0984  0.2919 -0.2042
  796XCA     C3 7175   9.581   2.525   6.613 -0.0282 -0.3530  0.0634
  796XCA     C4 7176   9.704   2.484   7.070 -0.0650 -0.2662  0.2569
  796XCA     C5 7177   9.875   2.243   7.423  0.1242 -0.3259  0.2489
  796XCA     C6 7178  10.190   2.278   7.851  0.1792  0.1645 -0.2410
  797XCA    COO 7179   6.567  15.313   8.331  0.0361  0.0148  0.0584
  797XCA     C1 7180   6.620  15.346   7.908  0.3662  0.0350 -0.0748
  797XCA     C2 7181   6.350  15.193   7.599 -0.2310  0.0469  0.0657
  797XCA     C3 7182   6.325  15.196   7.231  0.0454 -0.0307 -0.2672
  797XCA     C4 7183   6.411  15.327   6.892 -0.0749 -0.0415 -0.4063
  797XCA     C5 7184   6.601  15.306   6.521 -0.0365 -0.0974 -0.0821
  797XCA     C6 7185   6.901  15.179   6.134 -0.3008 -0.0367  0.0029
  798PNCE   AM1 7186  10.225   2.323   5.111 -0.1898  0.1705 -0.2564
  798PNCE   AM2 7187  10.441   2.018   5.107 -0.2028 -0.0465 -0.3580
  798PNCE   T1A 7188  10.357   2.432   5.527 -0.1361 -0.2108 -0.0933
  798PNCE   C2A 7189  10.437   2.743   5.910 -0.1340 -0.0600  0.2986
  798PNCE   C3A 7190  10.345   2.582   6.303 -0.2149 -0.1636 -0.1401
  798PNCE   C1B 7191  10.423   1.921   5.553 -0.0433  0.0446  0.0530
  798PNCE   C2B 7192  10.642   1.744   5.860  0.0059 -0.0676 -0.4897
  798PNCE   C3B 7193  10.808   1.641   6.195  0.4094  0.1218  0.1241
  798PNCE   D4B 7194  11.062   1.445   6.432  0.0275 -0.1462 -0.0426
  798PNCE   C5B 7195  11.514   1.595   6.419  0.0686  0.1279  0.0061
  798PNCE   C6B 7196  12.013   1.541   6.250 -0.0713 -0.3062 -0.1045
  799CHOL   ROH 7197   0.379  14.101   8.589  0.0889  0.1032  0.0280
  799CHOL    R1 7198   0.258  13.941   8.390 -0.0006  0.1429  0.0496
  799CHOL    R2 7199   0.094  14.045   8.193  0.1603  0.2282 -0.0439
  799CHOL    R3 7200   0.266  13.918   8.026  0.0972  0.0001  0.0607
  799CHOL    R4 7201   0.039  13.991   7.856  0.1674  0.0291 -0.0143
  799CHOL    R5 7202   0.125  13.792   7.879  0.0353 -0.0107  0.1314
  799CHOL    C1 7203   0.170  13.840   7.503  0.1124 -0.3008  0.1012
  799CHOL    C2 7204  -0.019  13.905   7.136  0.1173 -0.1144  0.2330
  800PNCE   AM1 7205   6.862  15.718   4.948 -0.0997  0.0173  0.2147
  800PNCE   AM2 7206   6.410  15.605   4.836  0.1854 -0.4389 -0.1076
  800PNCE   T1A 7207   6.757  15.631   5.349 -0.0541  0.1604  0.1224
  800PNCE   C2A 7208   6.515  15.571   5.787  0.1775  0.0057 -0.4511
  800PNCE   C3A 7209   6.393  15.683   6.164  0.0280  0.0482  0.4635
  800PNCE   C1B 7210   6.295  15.799   5.256 -0.1591  0.3909  0.1164
  800PNCE   C2B 7211   6.161  15.993   5.773 -0.1554 -0.0994  0.3107
  800PNCE   C3B 7212   5.898  15.928   6.132 -0.0951  0.2611  0.1570
  800PNCE   D4B 7213   5.663  15.767   6.435 -0.1614  0.2081 -0.1413
  800PNCE   C5B 7214   5.471  15.470   6.362 -0.1773 -0.0995  0.0995
  800PNCE   C6B 7215   5.040  15.462   6.338 -0.0375  0.1097 -0.0480
  801CHOL   ROH 7216   4.000   8.708   4.928  0.0782 -0.1889  0.0013
  801CHOL    R1 7217   3.810   8.720   5.137  0.0287 -0.1820 -0.0441
  801CHOL    R2 7218   3.658   8.502   5.213  0.1214 -0.2211  0.0264
  801CHOL    R3 7219   3.760   8.556   5.458  0.0425 -0.0536  0.0248
  801CHOL    R4 7220   3.482   8.481   5.509  0.0984 -0.2869  0.0086
  801CHOL    R5 7221   3.581   8.663   5.576 -0.0709 -0.1752 -0.0329
  801CHOL    C1 7222   3.475   8.518   5.913  0.0110 -0.1680 -0.0033
  801CHOL    C2 7223   3.272   8.460   6.195 -0.4048 -0.3664  0.0482
  802CHOL   ROH 7224   2.258  13.025   6.530  0.1018 -0.3059 -0.1470
  802CHOL    R1 7225   2.504  13.062   6.664  0.0442 -0.0551 -0.1055
  802CHOL    R2 7226   2.647  12.852   6.773  0.1491  0.1103  0.0821
  802CHOL    R3 7227   2.848  12.952   6.620  0.1267  0.1298  0.0652
  802CHOL    R4 7228   2.957  12.947   6.893  0.1548  0.1287  0.0532
  802CHOL    R5 7229   2.951  13.119   6.759  0.1291  0.1324  0.0598
  802CHOL    C1 7230   3.327  13.096   6.819  0.1372  0.1577  0.0204
  802CHOL    C2 7231   3.414  13.342   7.142 -0.0530 -0.0139 -0.1403
  803PNCE   AM1 7232   0.384  12.482   4.590 -0.1553 -0.0379 -0.1974
  803PNCE   AM2 7233   0.199  12.685   4.896 -0.0322 -0.3651 -0.1910
  803PNCE   T1A 7234   0.525  12.309   5.029  0.0249 -0.0274  0.0252
  803PNCE   C2A 7235   0.659  12.276   5.340 -0.1160 -0.0815  0.0001
  803PNCE   C3A 7236   0.608  12.081   5.698  0.1582 -0.1994 -0.3888
  803PNCE   C1B 7237   0.432  12.679   5.363 -0.3090  0.2104 -0.3318
  803PNCE   C2B 7238   0.829  12.643   5.617 -0.0577 -0.3116 -0.2756
  803PNCE   C3B 7239   1.030  12.352   5.715 -0.0132 -0.1500 -0.4144
  803PNCE   D4B 7240   1.448  12.255   5.784 -0.0129 -0.0049 -0.0185
  803PNCE   C5B 7241   1.574  12.627   6.095  0.1095 -0.3769 -0.2042
  803PNCE   C6B 7242   1.417  13.155   6.199 -0.0476 -0.1190  0.2327
  804PNCE   AM1 7243   0.992   8.065   4.427  0.0012 -0.1936  0.1165
  804PNCE   AM2 7244   1.066   8.405   4.501  0.0285  0.1106 -0.0914
  804PNCE   T1A 7245   0.831   7.744   4.641  0.1020 -0.1094 -0.2581
  804PNCE   C2A 7246   0.867   7.578   4.965  0.0738 -0.0490  0.0834
  804PNCE   C3A 7247   0.963   7.417   5.394  0.1508  0.0528 -0.0496
  804PNCE   C1B 7248   1.192   8.699   4.809  0.2399 -0.0593  0.0923
  804PNCE   C2B 7249   1.151   8.698   5.141 -0.1523 -0.1173 -0.0691
  804PNCE   C3B 7250   1.385   8.784   5.587  0.1283  0.2345  0.1193
  804PNCE   D4B 7251   1.595   8.934   5.965 -0.1407 -0.0819 -0.0996
  804PNCE   C5B 7252   1.383   9.095   6.434  0.1151 -0.3270  0.2977
  804PNCE   C6B 7253   1.383   9.078   6.851 -0.1557 -0.2991  0.2036
  805XCA    COO 7254  12.107   1.904   9.241  0.0313  0.1644 -0.0882
  805XCA     C1 7255  11.801   1.878   8.942  0.1491  0.0360 -0.2315
  805XCA     C2 7256  11.740   1.751   8.538 -0.2269 -0.0375 -0.1143
  805XCA     C3 7257  11.599   1.555   8.235 -0.0563  0.2848 -0.1019
  805XCA     C4 7258  11.519   1.290   7.754 -0.2908 -0.0335 -0.0775
  805XCA     C5 7259  11.286   0.940   7.658  0.4715  0.0370 -0.1310
  805XCA     C6 7260  10.974   0.895   7.327  0.1101  0.2075  0.4626
  806PNCE   AM1 7261  12.679  13.655   4.619  0.1195  0.0261  0.3171
  806PNCE   AM2 7262  12.842  13.913   4.438  0.0299  0.0338 -0.2130
  806PNCE   T1A 7263  12.738  13.554   5.086  0.1254  0.2261  0.0673
  806PNCE   C2A 7264  12.725  13.547   5.523  0.2995 -0.0649  0.1003
  806PNCE   C3A 7265  12.860  13.380   5.900  0.1701 -0.0702 -0.3007
  806PNCE   C1B 7266  12.878  14.148   4.940  0.0665 -0.2458 -0.1618
  806PNCE   C2B 7267  12.729  14.036   5.376  0.0189 -0.0399  0.3228
  806PNCE   C3B 7268  12.340  13.905   5.582 -0.0917 -0.0290  0.0798
  806PNCE   D4B 7269  12.345  13.473   5.924 -0.0229  0.1952 -0.1597
  806PNCE   C5B 7270  12.020  13.202   6.010 -0.0184  0.0238  0.2953
  806PNCE   C6B 7271  11.557  13.022   6.087 -0.2832 -0.0643  0.2171
  807PNCE   AM1 7272   3.829  14.518   4.500  0.2727  0.1454 -0.1222
  807PNCE   AM2 7273   3.947  14.483   4.788  0.0300 -0.3216 -0.0591
  807PNCE   T1A 7274   3.402  14.567   4.801 -0.0180  0.0389 -0.1395
  807PNCE   C2A 7275   3.487  14.862   5.134  0.1856 -0.2770 -0.5257
  807PNCE   C3A 7276   3.724  14.794   5.546 -0.2355  0.2133 -0.0551
  807PNCE   C1B 7277   3.738  14.444   5.210  0.0407  0.0501 -0.1934
  807PNCE   C2B 7278   3.494  14.307   5.615  0.0245 -0.0257  0.0947
  807PNCE   C3B 7279   3.320  14.185   6.027  0.0919  0.1618 -0.1754
  807PNCE   D4B 7280   3.021  14.304   6.227 -0.0508  0.0996  0.0476
  807PNCE   C5B 7281   2.788  14.028   6.600  0.1299  0.3061  0.1051
  807PNCE   C6B 7282   2.491  13.816   6.875  0.0249 -0.1134  0.1484
  808PNCE   AM1 7283  12.109  14.590   4.767 -0.4145 -0.2623  0.0296
  808PNCE   AM2 7284  11.814  14.827   4.817 -0.0529 -0.1832  0.0113
  808PNCE   T1A 7285  12.195  14.797   5.273  0.0847 -0.3034  0.3866
  808PNCE   C2A 7286  12.172  14.755   5.699 -0.1081 -0.1958  0.1568
  808PNCE   C3A 7287  11.997  14.742   6.126 -0.1314 -0.0601 -0.1667
  808PNCE   C1B 7288  11.723  14.735   5.190 -0.2050 -0.0102 -0.4499
  808PNCE   C2B 7289  11.748  14.948   5.537 -0.1151 -0.0109  0.1492
  808PNCE   C3B 7290  11.605  14.657   5.797 -0.0249 -0.0082  0.0730
  808PNCE   D4B 7291  11.120  14.819   6.027 -0.2755  0.1484 -0.1638
  808PNCE   C5B 7292  10.980  14.574   6.246  0.1897  0.0318 -0.0255
  808PNCE   C6B 7293  10.775  14.474   6.566  0.0369 -0.1701 -0.0941
  809CHOL   ROH 7294  12.129  15.331   5.487  0.1976  0.0694  0.1660
  809CHOL    R1 7295  12.038  15.235   5.737  0.0023  0.0391  0.0842
  809CHOL    R2 7296  12.188  15.254   5.968 -0.0764 -0.2046  0.1569
  809CHOL    R3 7297  11.965  15.376   6.064 -0.0060 -0.0426  0.1186
  809CHOL    R4 7298  12.121  15.307   6.303 -0.1136 -0.1997  0.1489
  809CHOL    R5 7299  11.913  15.255   6.264 -0.1482 -0.0323  0.0904
  809CHOL    C1 7300  11.872  15.452   6.588 -0.0691 -0.0447  0.1083
  809CHOL    C2 7301  11.488  15.461   6.743  0.3038 -0.2878 -0.1063
  810PNCE   AM1 7302  15.559  13.809   4.582  0.2303 -0.0945 -0.1535
  810PNCE   AM2 7303  15.495  14.049   4.880 -0.0297 -0.0327 -0.2645
  810PNCE   T1A 7304  15.676  13.525   4.789  0.2523  0.0354 -0.0068
  810PNCE   C2A 7305  15.794  13.176   4.883  0.0973 -0.0774  0.2564
  810PNCE   C3A 7306  15.620  13.092   5.234  0.0244 -0.0702  0.0113
  810PNCE   C1B 7307  15.209  14.088   5.178  0.0421 -0.1267  0.1791
  810PNCE   C2B 7308  15.157  14.028   5.630 -0.0697  0.1161  0.1563
  810PNCE   C3B 7309  15.062  13.832   6.040 -0.1176  0.1976 -0.0010
  810PNCE   D4B 7310  15.159  13.528   6.464  0.0062  0.5231 -0.1975
  810PNCE   C5B 7311  14.971  13.592   6.700 -0.1535 -0.1608 -0.1197
  810PNCE   C6B 7312  14.491  13.799   6.907  0.0388 -0.0672  0.2921
  811PNCE   AM1 7313   8.140   9.189   4.534  0.0702  0.3224  0.0434
  811PNCE   AM2 7314   8.432   8.964   4.549 -0.1154 -0.0461 -0.2357
  811PNCE   T1A 7315   8.065   9.306   5.067 -0.0369 -0.2673  0.0854
  811PNCE   C2A 7316   8.063   9.260   5.559 -0.2725  0.0454  0.0445
  811PNCE   C3A 7317   7.736   9.460   5.678  0.0983 -0.2070 -0.1577
  811PNCE   C1B 7318   8.204   8.816   4.998 -0.3114 -0.1805  0.0163
  811PNCE   C2B 7319   8.033   8.775   5.411 -0.1177  0.1035 -0.3464
  811PNCE   C3B 7320   7.956   8.869   5.826 -0.0503 -0.2199 -0.1714
  811PNCE   D4B 7321   7.898   9.155   6.007  0.1749  0.3021  0.0267
  811PNCE   C5B 7322   8.304   9.247   6.290  0.0013 -0.0121 -0.0728
  811PNCE   C6B 7323   8.521   8.947   6.607  0.3569 -0.3730  0.0087
  812CHOL   ROH 7324  12.008   0.698   7.325  0.1219 -0.0403 -0.5058
  812CHOL    R1 7325  12.211   0.525   7.230  0.1480 -0.1268 -0.2946
  812CHOL    R2 7326  12.348   0.352   7.396 -0.0690 -0.1520 -0.1449
  812CHOL    R3 7327  12.267   0.166   7.215  0.0352 -0.1507 -0.1951
  812CHOL    R4 7328  12.502   0.047   7.346 -0.2103 -0.2786  0.1584
  812CHOL    R5 7329  12.472   0.073   7.131  0.0895 -0.3211  0.1023
  812CHOL    C1 7330  12.516  -0.306   7.146 -0.1947 -0.3511  0.2880
  812CHOL    C2 7331  12.534  -0.785   7.189  0.1319 -0.1098  0.0701
  813PNCE   AM1 7332   4.540   9.906   5.351  0.0070 -0.4579 -0.0412
  813PNCE   AM2 7333   4.912   9.955   5.301 -0.1946  0.1607  0.1950
  813PNCE   T1A 7334   4.332   9.483   5.479  0.1646 -0.2096 -0.3366
  813PNCE   C2A 7335   4.196   9.164   5.851 -0.0795 -0.0660 -0.0826
  813PNCE   C3A 7336   4.254   9.135   6.251  0.0579 -0.0811 -0.2551
  813PNCE   C1B 7337   5.024   9.712   5.697  0.0528 -0.3357  0.0096
  813PNCE   C2B 7338   4.950   9.429   6.027 -0.0282 -0.1465  0.0794
  813PNCE   C3B 7339   5.063   9.464   6.450  0.1476 -0.1013  0.3618
  813PNCE   D4B 7340   4.880   9.191   6.688 -0.1460 -0.0472 -0.1271
  813PNCE   C5B 7341   4.595   8.833   6.515  0.1231  0.2227 -0.3830
  813PNCE   C6B 7342   4.295   8.544   6.522 -0.1484 -0.2469  0.3627
  814CHOL   ROH 7343  13.637   9.766   4.471 -0.2128  0.0245  0.0945
  814CHOL    R1 7344  13.623   9.828   4.747 -0.2839  0.0343  0.0895
  814CHOL    R2 7345  13.433   9.717   4.915 -0.1475 -0.1875  0.1068
  814CHOL    R3 7346  13.651   9.646   5.061 -0.0505  0.0956  0.1044
  814CHOL    R4 7347  13.423   9.576   5.230  0.0517 -0.0928  0.1566
  814CHOL    R5 7348  13.593   9.700   5.286 -0.0758  0.1077  0.0917
  814CHOL    C1 7349  13.622   9.427   5.551  0.2588  0.2281  0.1832
  814CHOL    C2 7350  13.507   9.445   5.975  0.0075 -0.3169 -0.1035
  815XCA    COO 7351   8.253   0.071   4.932 -0.1362  0.0813 -0.3128
  815XCA     C1 7352   8.427   0.080   5.417  0.0012  0.0177 -0.0473
  815XCA     C2 7353   8.532   0.051   5.811 -0.0554 -0.0986 -0.0383
  815XCA     C3 7354   8.642  -0.020   6.297  0.1485  0.2027  0.1336
  815XCA     C4 7355   9.113   0.087   6.439 -0.0918  0.0960 -0.0855
  815XCA     C5 7356   9.342   0.527   6.434 -0.3963 -0.0940 -0.0065
  815XCA     C6 7357   9.599   0.782   6.588  0.1254  0.0106  0.3591
  816PNCE   AM1 7358   7.844   5.442   4.017  0.2222  0.0362 -0.0566
  816PNCE   AM2 7359   7.856   5.144   4.168 -0.0397 -0.0717  0.0756
  816PNCE   T1A 7360   7.899   5.667   4.381  0.1312 -0.0494  0.0407
  816PNCE   C2A 7361   8.222   5.586   4.659  0.0670  0.1458 -0.0995
  816PNCE   C3A 7362   8.673   5.358   4.630  0.0712  0.2214 -0.0324
  816PNCE   C1B 7363   8.017   5.163   4.560  0.1255 -0.1502 -0.2866
  816PNCE   C2B 7364   7.874   5.129   4.884  0.0811  0.1820 -0.1008
  816PNCE   C3B 7365   7.810   5.333   5.297  0.3793  0.0841  0.1465
  816PNCE   D4B 7366   8.096   5.405   5.662 -0.1990 -0.4926 -0.0847
  816PNCE   C5B 7367   7.950   5.796   5.815 -0.2066 -0.3291 -0.1346
  816PNCE   C6B 7368   7.880   6.197   5.954  0.1621  0.2880  0.2415
  817PNCE   AM1 7369   9.117  10.614   4.950  0.3628  0.0968  0.0998
  817PNCE   AM2 7370   9.047  10.253   5.008  0.0497  0.0478  0.0573
  817PNCE   T1A 7371   9.365  10.788   5.317 -0.0094 -0.2320 -0.1073
  817PNCE   C2A 7372   9.515  10.852   5.739 -0.0565  0.1442 -0.0739
  817PNCE   C3A 7373   9.425  10.946   6.179  0.0356 -0.1703 -0.1143
  817PNCE   C1B 7374   9.040  10.059   5.388 -0.3515  0.0634  0.1577
  817PNCE   C2B 7375   9.223  10.073   5.759 -0.1301  0.0492 -0.2277
  817PNCE   C3B 7376   9.453   9.891   6.070  0.1701 -0.0622  0.1449
  817PNCE   D4B 7377   9.454   9.883   6.523 -0.3139  0.3067 -0.1575
  817PNCE   C5B 7378   9.392   9.446   6.628 -0.0812  0.1491  0.2153
  817PNCE   C6B 7379   9.557   9.229   7.031  0.1121 -0.2319  0.1595
  818CHOL   ROH 7380   1.052  15.346   4.677  0.0951 -0.1599  0.0890
  818CHOL    R1 7381   1.047  15.527   4.895  0.2127 -0.1704  0.1002
  818CHOL    R2 7382   0.927  15.466   5.136  0.0665 -0.0629  0.0536
  818CHOL    R3 7383   1.171  15.531   5.237  0.1039 -0.3261  0.1432
  818CHOL    R4 7384   0.989  15.548   5.466  0.0375 -0.1508  0.0818
  818CHOL    R5 7385   1.125  15.704   5.397  0.2279 -0.2864  0.1385
  818CHOL    C1 7386   1.254  15.658   5.753  0.0557 -0.4491  0.1822
  818CHOL    C2 7387   1.153  15.681   5.989 -0.3997  0.1228  0.1794
  819CHOL   ROH 7388   7.166   2.509   5.797  0.0441  0.1090 -0.0332
  819CHOL    R1 7389   7.156   2.607   6.063 -0.0706  0.1945 -0.0680
  819CHOL    R2 7390   7.374   2.720   6.188 -0.0928  0.1326  0.0287
  819CHOL    R3 7391   7.204   2.927   6.228 -0.0234  0.2238 -0.1379
  819CHOL    R4 7392   7.454   3.010   6.358 -0.1083  0.0808  0.1248
  819CHOL    R5 7393   7.256   3.005   6.449 -0.2079  0.1835 -0.0786
  819CHOL    C1 7394   7.340   3.374   6.494 -0.0522  0.1363  0.0245
  819CHOL    C2 7395   7.324   3.676   6.654  0.0972 -0.0966  0.0698
  820CHOL   ROH 7396   2.692   1.657   8.517  0.2097  0.0112 -0.0012
  820CHOL    R1 7397   2.572   1.613   8.265  0.1439  0.0039  0.0320
  820CHOL    R2 7398   2.344   1.746   8.183  0.0881 -0.0468  0.1148
  820CHOL    R3 7399   2.498   1.812   7.969  0.0039  0.0106  0.0703
  820CHOL    R4 7400   2.221   1.844   7.876 -0.0352  0.0880  0.2052
  820CHOL    R5 7401   2.377   1.725   7.781 -0.0940  0.0985  0.0897
  820CHOL    C1 7402   2.293   1.964   7.496 -0.1861  0.2204  0.2160
  820CHOL    C2 7403   2.117   1.968   7.181 -0.0029  0.0074 -0.0374
  821CHOL   ROH 7404  14.806  11.815   7.424 -0.1869 -0.0306  0.0652
  821CHOL    R1 7405  14.609  11.776   7.225 -0.1546  0.0216  0.0235
  821CHOL    R2 7406  14.429  11.973   7.153 -0.1357  0.0428  0.0394
  821CHOL    R3 7407  14.525  11.925   6.903 -0.0973  0.0980  0.0432
  821CHOL    R4 7408  14.252  12.024   6.861 -0.1581 -0.0665  0.0336
  821CHOL    R5 7409  14.337  11.838   6.783 -0.0426 -0.0176  0.0381
  821CHOL    C1 7410  14.239  12.008   6.456 -0.1353 -0.0783  0.0336
  821CHOL    C2 7411  14.052  12.121   6.133 -0.1710 -0.3017 -0.0101
  822CHOL   ROH 7412  14.092   8.323   5.981  0.0379 -0.0396 -0.2368
  822CHOL    R1 7413  14.311   8.503   5.986 -0.0173  0.0260  0.0497
  822CHOL    R2 7414  14.471   8.548   5.766  0.2980  0.0310  0.2691
  822CHOL    R3 7415  14.406   8.808   5.812  0.1476  0.0190  0.1268
  822CHOL    R4 7416  14.658   8.819   5.663  0.2457  0.0770  0.2986
  822CHOL    R5 7417  14.616   8.915   5.854  0.0692  0.1302  0.2329
  822CHOL    C1 7418  14.706   9.222   5.646  0.0741  0.0926  0.1821
  822CHOL    C2 7419  14.889   9.482   5.435 -0.1792  0.1441 -0.4346
  823PNCE   AM1 7420  15.742   0.343   4.641 -0.1135 -0.1801  0.0418
  823PNCE   AM2 7421  15.928   0.220   4.921 -0.2072  0.1806 -0.2963
  823PNCE   T1A 7422  15.337   0.278   4.877  0.0491  0.2279 -0.0512
  823PNCE   C2A 7423  15.269   0.215   5.290  0.1929 -0.1547  0.0259
  823PNCE   C3A 7424  15.409  -0.127   5.571  0.0065 -0.0101 -0.1132
  823PNCE   C1B 7425  15.781   0.404   5.191  0.1870  0.0653 -0.2931
  823PNCE   C2B 7426  15.581   0.488   5.599  0.2792 -0.1943  0.3139
  823PNCE   C3B 7427  15.676   0.224   5.957  0.2394 -0.0268 -0.1993
  823PNCE   D4B 7428  15.722   0.242   6.282 -0.0385 -0.0290  0.1939
  823PNCE   C5B 7429  16.058   0.170   6.501  0.0831 -0.0078 -0.0514
  823PNCE   C6B 7430  16.461   0.061   6.435 -0.0867 -0.0728 -0.0163
  824PNCE   AM1 7431   2.762  11.480   4.530  0.0826 -0.0121 -0.0116
  824PNCE   AM2 7432   2.500  11.462   4.419 -0.0151  0.2054 -0.1636
  824PNCE   T1A 7433   2.799  11.680   4.851  0.1303  0.0496  0.1050
  824PNCE   C2A 7434   2.862  11.631   5.339  0.0176 -0.0411  0.0293
  824PNCE   C3A 7435   2.990  11.271   5.656 -0.1319 -0.3641  0.0166
  824PNCE   C1B 7436   2.129  11.541   4.591 -0.1231  0.0477 -0.0651
  824PNCE   C2B 7437   1.985  11.566   4.964 -0.1264 -0.1754 -0.4211
  824PNCE   C3B 7438   2.056  11.417   5.425 -0.0483  0.1664 -0.0093
  824PNCE   D4B 7439   2.040  11.568   5.805 -0.3809 -0.0405  0.1417
  824PNCE   C5B 7440   2.157  11.222   6.041  0.0374  0.0719 -0.1222
  824PNCE   C6B 7441   2.284  10.923   6.308  0.1154 -0.1345 -0.4018
  825XCA    COO 7442  11.718  10.423   4.338  0.3549  0.1258 -0.1122
  825XCA     C1 7443  11.791  10.070   4.649  0.0591  0.0589 -0.1834
  825XCA     C2 7444  11.882   9.659   4.741 -0.2961 -0.0083 -0.1771
  825XCA     C3 7445  11.722   9.303   4.982 -0.0086 -0.0594  0.1489
  825XCA     C4 7446  11.926   9.131   5.183 -0.2716  0.1817  0.3235
  825XCA     C5 7447  12.240   9.187   5.462 -0.0261  0.0764 -0.2883
  825XCA     C6 7448  12.566   9.029   5.787 -0.1889  0.2804 -0.0274
  826XCA    COO 7449   2.807   8.826   4.803 -0.1406  0.0208  0.0259
  826XCA     C1 7450   2.630   8.585   5.184  0.1877 -0.1288 -0.2112
  826XCA     C2 7451   2.473   8.721   5.628  0.0880  0.0237 -0.2265
  826XCA     C3 7452   2.676   9.082   5.684  0.1503  0.0769  0.0535
  826XCA     C4 7453   2.941   9.143   6.027 -0.2029 -0.0245 -0.0945
  826XCA     C5 7454   3.290   9.008   6.192 -0.2389 -0.2347  0.0844
  826XCA     C6 7455   3.704   9.005   6.060  0.1014  0.1935 -0.0779
  827XCA    COO 7456   3.104  12.510   8.650  0.0238 -0.1201  0.0398
  827XCA     C1 7457   3.067  12.187   8.266 -0.0469  0.0583 -0.0386
  827XCA     C2 7458   3.044  12.100   7.813 -0.1134 -0.0580 -0.3403
  827XCA     C3 7459   2.786  12.001   7.507 -0.0116  0.0391  0.0542
  827XCA     C4 7460   2.653  11.896   7.110  0.1386 -0.2017 -0.6066
  827XCA     C5 7461   2.505  12.201   6.794 -0.1698 -0.1140  0.0225
  827XCA     C6 7462   2.234  12.551   6.449  0.1202 -0.2869 -0.0209
  828PNCE   AM1 7463   3.225   8.462   4.587  0.0139 -0.2616  0.1880
  828PNCE   AM2 7464   3.396   8.563   4.818 -0.0261  0.1375 -0.0962
  828PNCE   T1A 7465   3.337   8.126   4.741  0.0292  0.1264  0.0031
  828PNCE   C2A 7466   3.620   7.714   5.011  0.1790 -0.0748 -0.0978
  828PNCE   C3A 7467   3.459   7.428   5.223 -0.2844 -0.1406  0.0365
  828PNCE   C1B 7468   3.187   8.810   5.165 -0.3176  0.0497 -0.1345
  828PNCE   C2B 7469   2.996   8.729   5.489  0.2278  0.2379  0.0768
  828PNCE   C3B 7470   2.998   8.703   5.832  0.1825  0.4643  0.0167
  828PNCE   D4B 7471   2.656   8.746   6.112  0.0830  0.0021  0.1570
  828PNCE   C5B 7472   2.273   8.510   6.083 -0.1272  0.1399  0.3005
  828PNCE   C6B 7473   1.836   8.165   6.102 -0.2861  0.0828  0.0004
  829PNCE   AM1 7474   2.775  11.213   4.096  0.2417  0.2370 -0.0201
  829PNCE   AM2 7475   2.511  10.961   4.276  0.3903 -0.1034 -0.2502
  829PNCE   T1A 7476   3.080  11.048   4.448  0.1980 -0.1799  0.3710
  829PNCE   C2A 7477   3.164  10.966   4.814 -0.2771  0.3502 -0.0241
  829PNCE   C3A 7478   3.291  11.000   5.207 -0.4790  0.1419 -0.0897
  829PNCE   C1B 7479   2.574  11.050   4.690 -0.0931  0.0958  0.1190
  829PNCE   C2B 7480   2.833  11.159   5.075 -0.0662 -0.2218  0.3383
  829PNCE   C3B 7481   2.874  10.880   5.410  0.2323 -0.4515  0.0484
  829PNCE   D4B 7482   2.793  10.713   5.797 -0.3068 -0.2217 -0.2023
  829PNCE   C5B 7483   3.020  10.779   6.068 -0.2274 -0.1300 -0.2027
  829PNCE   C6B 7484   3.042  11.028   6.458 -0.0394 -0.0875  0.2583
  830PNCE   AM1 7485   6.125   9.176   4.914 -0.0612  0.0985 -0.0404
  830PNCE   AM2 7486   6.331   9.415   4.955  0.1899  0.0762 -0.2228
  830PNCE   T1A 7487   6.176   8.931   5.281  0.2617  0.1402  0.1277
  830PNCE   C2A 7488   5.974   8.874   5.742 -0.2089 -0.2130  0.3302
  830PNCE   C3A 7489   6.021   8.916   6.172  0.0022 -0.0194  0.1338
  830PNCE   C1B 7490   6.307   9.383   5.480 -0.0613  0.1725  0.0674
  830PNCE   C2B 7491   6.367   9.256   5.924  0.0569 -0.0073 -0.3495
  830PNCE   C3B 7492   6.549   9.371   6.383 -0.0801  0.1019 -0.0906
  830PNCE   D4B 7493   6.867   9.300   6.652 -0.2054 -0.0931 -0.1140
  830PNCE   C5B 7494   6.995   9.756   6.977  0.0132  0.1680  0.1045
  830PNCE   C6B 7495   7.133  10.126   6.775 -0.3381  0.2309  0.3096
  831PNCE   AM1 7496   4.689  10.080   5.834  0.2819 -0.3536  0.2410
  831PNCE   AM2 7497   4.821  10.297   5.618  0.0506 -0.0714 -0.0176
  831PNCE   T1A 7498   4.931   9.971   6.228  0.0646 -0.0499  0.2652
  831PNCE   C2A 7499   5.070  10.012   6.660  0.1323  0.0403  0.1008
  831PNCE   C3A 7500   5.073   9.995   7.117 -0.4588 -0.2232  0.0202
  831PNCE   C1B 7501   4.817  10.582   5.958 -0.1477 -0.2463  0.0317
  831PNCE   C2B 7502   4.648  10.742   6.277  0.1820  0.1027 -0.0963
  831PNCE   C3B 7503   4.285  10.749   6.306  0.2901 -0.2145 -0.0836
  831PNCE   D4B 7504   4.146  10.691   6.797  0.0186 -0.0871 -0.2534
  831PNCE   C5B 7505   4.505  10.758   7.086 -0.1035  0.0781 -0.0842
  831PNCE   C6B 7506   4.722  10.948   7.303 -0.2474  0.1661  0.1113
  832XCA    COO 7507   8.021   0.697   9.180 -0.0240 -0.0304 -0.0973
  832XCA     C1 7508   7.930   0.477   8.732  0.0683 -0.0131 -0.0070
  832XCA     C2 7509   7.627   0.535   8.507 -0.2520 -0.1510  0.0413
  832XCA     C3 7510   7.654   0.833   8.152 -0.1455  0.1823  0.1167
  832XCA     C4 7511   7.443   1.049   7.729 -0.1141 -0.0749  0.0195
  832XCA     C5 7512   7.452   1.488   7.624  0.2312  0.1552  0.3145
  832XCA     C6 7513   7.254   1.840   7.405 -0.0035  0.1091  0.1561
  833PNCE   AM1 7514   4.536   6.240   4.805 -0.0716 -0.1341 -0.1893
  833PNCE   AM2 7515   4.441   6.586   4.754 -0.0824  0.0858 -0.0336
  833PNCE   T1A 7516   4.953   6.143   5.073 -0.2884 -0.0329 -0.0157
  833PNCE   C2A 7517   5.326   5.965   5.033 -0.2947  0.1784  0.2464
  833PNCE   C3A 7518   5.693   6.076   4.885 -0.2862  0.2305 -0.1568
  833PNCE   C1B 7519   4.672   6.563   5.129  0.0808 -0.0306 -0.0293
  833PNCE   C2B 7520   4.942   6.402   5.491 -0.3495 -0.2759  0.1979
  833PNCE   C3B 7521   5.131   5.991   5.617  0.4459 -0.2302  0.1310
  833PNCE   D4B 7522   5.376   5.782   5.878 -0.1498  0.0872 -0.0655
  833PNCE   C5B 7523   5.423   5.571   6.240 -0.1821  0.0906  0.0367
  833PNCE   C6B 7524   5.420   5.317   6.611 -0.1025  0.0076  0.1005
  834PNCE   AM1 7525   6.001   4.995   4.623 -0.2013  0.2226  0.1051
  834PNCE   AM2 7526   6.050   5.289   4.624 -0.3648 -0.0299  0.3805
  834PNCE   T1A 7527   6.111   4.980   5.101  0.2160  0.0695  0.1587
  834PNCE   C2A 7528   6.074   5.053   5.573 -0.2945 -0.1593  0.0382
  834PNCE   C3A 7529   6.111   4.804   5.991  0.3331 -0.0727  0.1479
  834PNCE   C1B 7530   6.336   5.428   4.699  0.1761  0.1293 -0.0556
  834PNCE   C2B 7531   6.408   5.579   5.123  0.0503  0.1649  0.0423
  834PNCE   C3B 7532   6.398   5.518   5.584  0.1135 -0.2933  0.1854
  834PNCE   D4B 7533   6.337   5.305   5.937 -0.0410 -0.0091 -0.0682
  834PNCE   C5B 7534   6.394   5.131   6.365 -0.0128 -0.2044  0.3783
  834PNCE   C6B 7535   6.658   4.897   6.560 -0.0939  0.3011  0.0214
  835CHOL   ROH 7536   0.856   1.400   5.929  0.2142  0.3133  0.1075
  835CHOL    R1 7537   0.819   1.498   6.192  0.0671  0.2861  0.0995
  835CHOL    R2 7538   0.639   1.698   6.252 -0.1028  0.1581  0.0529
  835CHOL    R3 7539   0.546   1.516   6.431 -0.0173  0.0824  0.0186
  835CHOL    R4 7540   0.441   1.773   6.526  0.0550  0.0386  0.1999
  835CHOL    R5 7541   0.557   1.630   6.642  0.1059 -0.0229  0.0659
  835CHOL    C1 7542   0.239   1.646   6.853  0.2271 -0.1020  0.2532
  835CHOL    C2 7543   0.264   1.627   7.158  0.1444  0.2979 -0.0132
  836CHOL   ROH 7544   0.725  12.089   8.499  0.0181  0.0858 -0.1578
  836CHOL    R1 7545   0.565  11.970   8.299  0.0150 -0.0751 -0.0609
  836CHOL    R2 7546   0.552  12.068   8.041 -0.1323 -0.1704 -0.0889
  836CHOL    R3 7547   0.620  11.814   7.975 -0.0108 -0.1550 -0.0276
  836CHOL    R4 7548   0.483  11.918   7.737  0.2425 -0.1615 -0.1838
  836CHOL    R5 7549   0.435  11.735   7.845  0.1486 -0.1780 -0.2490
  836CHOL    C1 7550   0.506  11.592   7.499  0.5748 -0.1419 -0.1816
  836CHOL    C2 7551   0.657  11.435   7.300 -0.1717 -0.1808  0.0876
  837PNCE   AM1 7552  14.796  13.202   5.116  0.2664  0.1734  0.2299
  837PNCE   AM2 7553  14.536  13.088   5.196 -0.1889 -0.1478  0.1135
  837PNCE   T1A 7554  15.172  13.255   5.420  0.3022 -0.0273  0.0282
  837PNCE   C2A 7555  15.367  13.329   5.797  0.1556 -0.0835  0.0065
  837PNCE   C3A 7556  15.542  13.315   6.144 -0.0446 -0.0778 -0.0109
  837PNCE   C1B 7557  14.529  13.180   5.659 -0.1113 -0.0183 -0.1215
  837PNCE   C2B 7558  14.587  12.944   5.972 -0.1295  0.3533  0.0842
  837PNCE   C3B 7559  14.499  12.771   6.241 -0.3313 -0.1023  0.0417
  837PNCE   D4B 7560  14.453  12.441   6.528  0.0198  0.0283 -0.1675
  837PNCE   C5B 7561  14.716  12.431   6.948 -0.0996 -0.0403  0.0866
  837PNCE   C6B 7562  14.654  12.547   7.388 -0.2734 -0.0916  0.2235
  838PNCE   AM1 7563   3.465  12.993   4.289  0.0704 -0.0633 -0.1872
  838PNCE   AM2 7564   3.791  12.812   4.267  0.2354  0.1543  0.2510
  838PNCE   T1A 7565   3.346  13.150   4.707 -0.1585 -0.0771  0.0729
  838PNCE   C2A 7566   3.289  12.964   5.166 -0.2165 -0.3347 -0.0982
  838PNCE   C3A 7567   3.124  12.661   5.341  0.1986  0.0553 -0.0064
  838PNCE   C1B 7568   3.811  13.026   4.717  0.1575  0.2085  0.1145
  838PNCE   C2B 7569   4.064  12.996   5.033 -0.1418 -0.0043  0.1823
  838PNCE   C3B 7570   4.095  12.956   5.437 -0.1317 -0.2118  0.0054
  838PNCE   D4B 7571   4.067  13.091   5.826  0.1825  0.0143  0.1018
  838PNCE   C5B 7572   4.050  12.863   6.139 -0.2300 -0.2482  0.0906
  838PNCE   C6B 7573   4.020  12.904   6.523 -0.1049 -0.2211  0.1277
  839PNCE   AM1 7574  13.829  14.387   5.524  0.2783  0.0946 -0.1565
  839PNCE   AM2 7575  13.999  14.290   5.177 -0.3369 -0.3790 -0.0426
  839PNCE   T1A 7576  13.957  14.835   5.780 -0.1254  0.0679 -0.0671
  839PNCE   C2A 7577  14.062  15.174   5.981 -0.2383  0.0543  0.1391
  839PNCE   C3A 7578  14.304  15.396   6.159 -0.1833 -0.0373  0.1547
  839PNCE   C1B 7579  14.247  14.054   5.501 -0.1096 -0.0910  0.0069
  839PNCE   C2B 7580  14.456  13.983   5.901  0.0109  0.4398 -0.0100
  839PNCE   C3B 7581  14.662  14.143   6.183 -0.3165 -0.0824 -0.0517
  839PNCE   D4B 7582  14.981  14.067   6.545  0.1058 -0.0943  0.3100
  839PNCE   C5B 7583  15.339  14.194   6.367  0.0307  0.0131  0.0388
  839PNCE   C6B 7584  15.560  14.547   6.261 -0.0125  0.3077  0.0913
  840XCA    COO 7585   8.251  12.342   4.878  0.0029  0.0363 -0.0239
  840XCA     C1 7586   8.613  12.351   5.281  0.0273 -0.0890  0.3155
  840XCA     C2 7587   8.862  12.380   5.626 -0.2144 -0.0024  0.1780
  840XCA     C3 7588   8.909  12.679   5.883  0.1712 -0.1225  0.1031
  840XCA     C4 7589   8.681  12.944   6.119 -0.1973  0.1587 -0.0407
  840XCA     C5 7590   8.453  12.880   6.436  0.1365  0.0081  0.1861
  840XCA     C6 7591   8.370  12.968   6.807 -0.0098 -0.1383 -0.0693
  841CHOL   ROH 7592   3.416   4.605   8.623  0.0449 -0.1007  0.0359
  841CHOL    R1 7593   3.362   4.455   8.389 -0.0485 -0.0136  0.0017
  841CHOL    R2 7594   3.124   4.479   8.250  0.0041  0.2358 -0.0454
  841CHOL    R3 7595   3.289   4.528   8.040  0.0957  0.1076 -0.0051
  841CHOL    R4 7596   3.053   4.401   7.920  0.1637 -0.0236 -0.0213
  841CHOL    R5 7597   3.261   4.339   7.896  0.1910 -0.0099  0.1224
  841CHOL    C1 7598   3.168   4.403   7.532  0.3427 -0.2948  0.0305
  841CHOL    C2 7599   3.119   4.580   7.236  0.1578  0.0220  0.2741
  842PNCE   AM1 7600   6.591   4.916   4.512 -0.6453  0.1676 -0.2023
  842PNCE   AM2 7601   6.370   4.698   4.614  0.1066  0.0833  0.0262
  842PNCE   T1A 7602   6.590   5.060   4.976 -0.0662 -0.2250  0.1233
  842PNCE   C2A 7603   6.793   5.284   5.295  0.1105 -0.0342  0.4193
  842PNCE   C3A 7604   6.875   5.384   5.697 -0.0610  0.2769 -0.1928
  842PNCE   C1B 7605   6.428   4.548   5.087 -0.0202  0.1222 -0.0424
  842PNCE   C2B 7606   6.531   4.893   5.446 -0.1039  0.1345 -0.0188
  842PNCE   C3B 7607   6.712   4.778   5.879 -0.0896 -0.0238 -0.3068
  842PNCE   D4B 7608   6.870   4.407   6.225  0.0101  0.3147  0.1058
  842PNCE   C5B 7609   6.883   4.008   6.392  0.0828  0.2374 -0.2826
  842PNCE   C6B 7610   6.726   3.836   6.879 -0.1744  0.3007 -0.4224
  843CHOL   ROH 7611   4.465   4.426   5.411 -0.0865 -0.1265  0.0545
  843CHOL    R1 7612   4.378   4.572   5.637  0.1266  0.1589 -0.0431
  843CHOL    R2 7613   4.386   4.848   5.649 -0.1328  0.1912 -0.5196
  843CHOL    R3 7614   4.123   4.821   5.710 -0.0187  0.0166 -0.0521
  843CHOL    R4 7615   4.193   5.089   5.803 -0.1197  0.2591 -0.6059
  843CHOL    R5 7616   4.098   4.932   5.920  0.2182  0.3432 -0.1829
  843CHOL    C1 7617   3.832   5.204   5.950 -0.0049  0.1347 -0.2173
  843CHOL    C2 7618   3.480   5.153   6.325 -0.0499 -0.2416  0.1748
  844XCA    COO 7619  10.657   0.403   5.655  0.2278  0.0069 -0.0094
  844XCA     C1 7620  10.349   0.305   6.082  0.0123  0.1790  0.1703
  844XCA     C2 7621  10.512   0.447   6.375 -0.2033 -0.2800 -0.0630
  844XCA     C3 7622  10.813   0.574   6.626 -0.2533  0.0848  0.0254
  844XCA     C4 7623  10.707   0.887   6.930 -0.0525  0.1518  0.2492
  844XCA     C5 7624  10.316   1.230   6.988  0.2036 -0.5234  0.0039
  844XCA     C6 7625  10.104   1.530   7.284 -0.0803  0.0583  0.2618
  845PNCE   AM1 7626  13.702  12.088   4.798 -0.5758 -0.2976 -0.1466
  845PNCE   AM2 7627  13.989  11.952   4.912 -0.1301 -0.0547 -0.1981
  845PNCE   T1A 7628  13.631  12.006   5.270 -0.1718 -0.1195  0.0941
  845PNCE   C2A 7629  13.833  11.878   5.598 -0.0867 -0.1439  0.2260
  845PNCE   C3A 7630  14.280  11.885   5.693 -0.1570  0.0432 -0.1897
  845PNCE   C1B 7631  14.151  11.718   5.241 -0.0438  0.0166 -0.1415
  845PNCE   C2B 7632  14.261  11.411   5.495  0.0013 -0.3654  0.1709
  845PNCE   C3B 7633  14.290  11.261   5.890 -0.1846 -0.0573 -0.0275
  845PNCE   D4B 7634  14.511  11.218   6.274 -0.2556  0.2249  0.0805
  845PNCE   C5B 7635  14.637  10.851   6.582  0.0286  0.1733  0.0384
  845PNCE   C6B 7636  14.395  10.619   6.925  0.1529 -0.2351  0.0610
  846CHOL   ROH 7637   2.266   1.723   4.879  0.0937  0.0681  0.0840
  846CHOL    R1 7638   2.266   1.822   5.143  0.0626 -0.0904  0.1440
  846CHOL    R2 7639   2.078   2.002   5.235  0.2248  0.0812  0.1383
  846CHOL    R3 7640   2.041   1.815   5.429 -0.1120  0.0075  0.0124
  846CHOL    R4 7641   1.936   2.064   5.545  0.1820  0.0922  0.1173
  846CHOL    R5 7642   2.086   1.932   5.634 -0.0301 -0.1727  0.1028
  846CHOL    C1 7643   1.820   1.924   5.907 -0.1591  0.0294 -0.0132
  846CHOL    C2 7644   1.476   1.900   6.078  0.4338 -0.1290  0.0784
  847XCA    COO 7645   2.268  11.183   8.794  0.1019  0.1147  0.4182
  847XCA     C1 7646   2.104  11.088   8.353 -0.0346 -0.1032 -0.4037
  847XCA     C2 7647   1.926  10.924   7.992  0.3126 -0.0006  0.1366
  847XCA     C3 7648   1.874  11.024   7.564  0.0720  0.1232 -0.0277
  847XCA     C4 7649   2.066  11.093   7.197  0.0412 -0.0220  0.1461
  847XCA     C5 7650   2.301  11.252   6.919 -0.1154  0.1359 -0.0664
  847XCA     C6 7651   2.379  11.701   6.720  0.0264  0.0666 -0.2085
  848CHOL   ROH 7652   2.647  12.126   8.613  0.0277  0.1584  0.0949
  848CHOL    R1 7653   2.598  12.106   8.335  0.1221  0.3766  0.0587
  848CHOL    R2 7654   2.441  11.907   8.225  0.5757  0.1354 -0.2054
  848CHOL    R3 7655   2.307  12.117   8.116  0.1226 -0.0158  0.0358
  848CHOL    R4 7656   2.335  11.923   7.897  0.7099  0.3661 -0.2385
  848CHOL    R5 7657   2.395  12.132   7.893  0.2059  0.5266  0.1001
  848CHOL    C1 7658   2.147  12.129   7.603  0.3626  0.3585 -0.0312
  848CHOL    C2 7659   2.212  12.187   7.158  0.3010  0.0494  0.1372
  849CHOL   ROH 7660   4.990  12.982   8.927 -0.0520 -0.1319 -0.2277
  849CHOL    R1 7661   4.895  13.036   8.666 -0.0431  0.0804 -0.1885
  849CHOL    R2 7662   5.001  13.237   8.508  0.2386 -0.0479 -0.1729
  849CHOL    R3 7663   5.033  13.034   8.329 -0.1380 -0.0682 -0.2265
  849CHOL    R4 7664   5.015  13.276   8.165  0.2867  0.0021 -0.1657
  849CHOL    R5 7665   4.895  13.096   8.144 -0.0413  0.2224 -0.2029
  849CHOL    C1 7666   5.053  13.109   7.798 -0.0390  0.0119 -0.2120
  849CHOL    C2 7667   5.200  13.004   7.541  0.0343  0.3317 -0.0999
  850CHOL   ROH 7668   5.400   0.215   4.772  0.2436  0.0019  0.1478
  850CHOL    R1 7669   5.311   0.044   4.979  0.3007 -0.0538  0.1260
  850CHOL    R2 7670   5.405   0.061   5.238  0.2065  0.0257  0.1521
  850CHOL    R3 7671   5.141   0.082   5.299  0.1707 -0.1631  0.0721
  850CHOL    R4 7672   5.257  -0.068   5.522  0.2933  0.2538  0.3048
  850CHOL    R5 7673   5.087  -0.128   5.400  0.3722 -0.0903  0.3479
  850CHOL    C1 7674   4.923  -0.124   5.745  0.3103  0.2093  0.3188
  850CHOL    C2 7675   4.871  -0.359   5.879 -0.0037 -0.2304  0.0111
  851PNCE   AM1 7676   4.186  10.843   5.051  0.1112 -0.0621  0.0419
  851PNCE   AM2 7677   4.364  10.495   5.008 -0.0931  0.4663 -0.0563
  851PNCE   T1A 7678   3.936  10.941   5.384  0.0899  0.0337  0.2795
  851PNCE   C2A 7679   3.864  10.916   5.768  0.1836 -0.0926 -0.2806
  851PNCE   C3A 7680   4.000  11.109   6.147  0.1233 -0.0240 -0.2660
  851PNCE   C1B 7681   4.182  10.311   5.469  0.0650 -0.2332  0.0232
  851PNCE   C2B 7682   4.169   9.992   5.860  0.1533 -0.0012 -0.0788
  851PNCE   C3B 7683   4.323   9.596   6.032  0.2977  0.1334 -0.0161
  851PNCE   D4B 7684   4.521   9.628   6.300  0.0705  0.2271 -0.0288
  851PNCE   C5B 7685   4.305   9.503   6.636  0.1254 -0.2735 -0.1226
  851PNCE   C6B 7686   4.030   9.305   6.812  0.0839  0.0789 -0.0555
  852XCA    COO 7687   5.462   8.018   4.770 -0.0421  0.0560 -0.0859
  852XCA     C1 7688   5.625   7.910   5.195 -0.0672  0.1939 -0.0184
  852XCA     C2 7689   5.800   7.626   5.426  0.0154  0.0138 -0.0622
  852XCA     C3 7690   5.886   7.403   5.669 -0.1374 -0.0231 -0.0386
  852XCA     C4 7691   5.882   7.171   5.936  0.0135  0.0918 -0.0983
  852XCA     C5 7692   5.832   7.171   6.405  0.2298 -0.1862 -0.1312
  852XCA     C6 7693   5.954   7.293   6.812 -0.1646  0.3204  0.0886
  853PNCE   AM1 7694   3.001   5.762   4.736 -0.1955 -0.0464 -0.1811
  853PNCE   AM2 7695   3.261   5.795   4.802 -0.0626 -0.2436 -0.0023
  853PNCE   T1A 7696   2.704   5.768   5.108  0.0379  0.1387 -0.1204
  853PNCE   C2A 7697   2.423   5.622   5.309  0.1402  0.5273 -0.0828
  853PNCE   C3A 7698   2.422   5.180   5.377 -0.2758 -0.1553 -0.2543
  853PNCE   C1B 7699   3.184   5.675   5.264 -0.0198  0.0018  0.1167
  853PNCE   C2B 7700   3.264   5.762   5.792  0.0555 -0.1110  0.1306
  853PNCE   C3B 7701   3.061   5.900   6.067 -0.0949 -0.0443  0.2478
  853PNCE   D4B 7702   2.770   6.262   6.049  0.0313  0.0741  0.1411
  853PNCE   C5B 7703   2.507   6.231   5.803  0.2250  0.2467 -0.1470
  853PNCE   C6B 7704   2.241   5.973   5.590  0.1537 -0.2470  0.2480
  854CHOL   ROH 7705  11.022   3.466   7.163 -0.2773 -0.1348  0.2404
  854CHOL    R1 7706  11.202   3.250   7.130 -0.1859 -0.0399  0.1050
  854CHOL    R2 7707  11.476   3.280   7.148 -0.1906  0.0918 -0.0289
  854CHOL    R3 7708  11.453   3.082   7.333  0.0018  0.0414 -0.0568
  854CHOL    R4 7709  11.697   3.016   7.184 -0.0165  0.2159 -0.1687
  854CHOL    R5 7710  11.526   2.885   7.218  0.0746  0.1067 -0.1248
  854CHOL    C1 7711  11.803   2.677   7.378  0.2655  0.2409 -0.2763
  854CHOL    C2 7712  11.980   2.405   7.337  0.0427 -0.2439 -0.0942
  855PNCE   AM1 7713  10.641  13.306   4.795 -0.0937 -0.0436  0.4633
  855PNCE   AM2 7714  10.387  13.436   4.872  0.0883  0.0197  0.1272
  855PNCE   T1A 7715  10.796  13.321   5.229  0.3979 -0.0443 -0.0615
  855PNCE   C2A 7716  10.960  13.538   5.680  0.0737  0.1412  0.2004
  855PNCE   C3A 7717  11.401  13.520   5.783  0.0378 -0.0512  0.0708
  855PNCE   C1B 7718  10.276  13.160   5.203 -0.1634 -0.1103  0.0109
  855PNCE   C2B 7719  10.404  13.046   5.485  0.2882  0.1311  0.0567
  855PNCE   C3B 7720  10.633  13.057   5.883 -0.1506 -0.0796  0.2152
  855PNCE   D4B 7721  10.758  13.109   6.318  0.0056 -0.1252 -0.1002
  855PNCE   C5B 7722  10.781  12.773   6.626 -0.1578 -0.2319 -0.0679
  855PNCE   C6B 7723  11.169  12.427   6.750 -0.0839 -0.0129  0.0417
  856CHOL   ROH 7724  13.259   6.221   4.817 -0.2041 -0.2014  0.0756
  856CHOL    R1 7725  13.378   6.176   5.070 -0.0717 -0.0397  0.0436
  856CHOL    R2 7726  13.272   6.000   5.255 -0.0098  0.1240  0.2354
  856CHOL    R3 7727  13.522   5.894   5.249 -0.0385  0.0589  0.1760
  856CHOL    R4 7728  13.364   5.704   5.407 -0.0627  0.0882  0.1978
  856CHOL    R5 7729  13.552   5.798   5.466 -0.0223  0.0365  0.1667
  856CHOL    C1 7730  13.653   5.431   5.489 -0.1205  0.0064  0.1202
  856CHOL    C2 7731  13.630   5.083   5.680 -0.0648 -0.0830  0.0258
  857CHOL   ROH 7732   3.345  10.051   4.633 -0.0472 -0.1695  0.0767
  857CHOL    R1 7733   3.327  10.077   4.915  0.1047 -0.1865  0.0884
  857CHOL    R2 7734   3.139   9.942   5.065  0.0157  0.0035  0.1500
  857CHOL    R3 7735   3.357   9.857   5.203 -0.0160 -0.2618  0.0447
  857CHOL    R4 7736   3.129   9.770   5.365 -0.0482  0.1286  0.2208
  857CHOL    R5 7737   3.298   9.889   5.433  0.1707 -0.0876  0.0715
  857CHOL    C1 7738   3.329   9.590   5.669 -0.1152 -0.0478  0.1633
  857CHOL    C2 7739   3.366   9.509   6.020  0.3366  0.0576  0.0155
  858CHOL   ROH 7740  15.719   0.163   6.820 -0.0214 -0.1356  0.2051
  858CHOL    R1 7741  15.543   0.044   6.633  0.1002 -0.1279  0.0823
  858CHOL    R2 7742  15.568  -0.218   6.550  0.0841 -0.1652  0.1787
  858CHOL    R3 7743  15.309  -0.235   6.630  0.0070 -0.0482 -0.0386
  858CHOL    R4 7744  15.367  -0.496   6.510  0.0613 -0.1551  0.2292
  858CHOL    R5 7745  15.202  -0.363   6.459  0.1338 -0.1657 -0.0270
  858CHOL    C1 7746  15.007  -0.674   6.563 -0.0243 -0.0393  0.0547
  858CHOL    C2 7747  14.686  -0.800   6.405 -0.1758  0.1698 -0.0693
  859CHOL   ROH 7748  15.118   9.557   4.666 -0.0815 -0.2685  0.1278
  859CHOL    R1 7749  15.217   9.705   4.886  0.0351 -0.2844  0.0867
  859CHOL    R2 7750  15.106   9.945   4.966  0.2729 -0.1331 -0.0287
  859CHOL    R3 7751  15.089   9.820   5.207  0.0963 -0.0202  0.0191
  859CHOL    R4 7752  15.001  10.095   5.259  0.1719  0.0391 -0.1513
  859CHOL    R5 7753  15.157   9.986   5.365  0.0750  0.0252 -0.0184
  859CHOL    C1 7754  14.923  10.065   5.656 -0.0526  0.2454 -0.1778
  859CHOL    C2 7755  14.880  10.258   5.946  0.1735 -0.0300 -0.0776
  860PNCE   AM1 7756  13.264   1.538   4.431 -0.2517 -0.1337  0.1379
  860PNCE   AM2 7757  12.941   1.485   4.471  0.0598  0.0885 -0.2267
  860PNCE   T1A 7758  13.556   1.557   4.689  0.0759 -0.0573 -0.1376
  860PNCE   C2A 7759  13.758   1.559   5.057  0.0820 -0.1603 -0.0882
  860PNCE   C3A 7760  13.964   1.510   5.449  0.4485 -0.0468  0.2157
  860PNCE   C1B 7761  13.078   1.611   4.944  0.0429  0.0376  0.0515
  860PNCE   C2B 7762  13.343   1.427   5.281 -0.0562 -0.4159  0.0450
  860PNCE   C3B 7763  13.492   1.557   5.669  0.1726 -0.2043  0.1059
  860PNCE   D4B 7764  13.734   1.572   5.939  0.4945  0.0715 -0.4007
  860PNCE   C5B 7765  13.705   1.620   6.457  0.0618 -0.0317 -0.0010
  860PNCE   C6B 7766  13.605   2.051   6.617  0.0577  0.0954 -0.1598
  861PNCE   AM1 7767  10.585   5.087   3.296 -0.0271  0.1687  0.2464
  861PNCE   AM2 7768  10.892   5.167   3.307  0.0286  0.1296  0.0220
  861PNCE   T1A 7769  10.740   4.833   3.669 -0.1233 -0.0329 -0.0332
  861PNCE   C2A 7770  10.654   4.807   4.006  0.1270  0.1058 -0.2118
  861PNCE   C3A 7771  10.774   5.056   4.357  0.0234  0.0228 -0.0336
  861PNCE   C1B 7772  10.672   5.350   3.697  0.1731  0.1273 -0.2227
  861PNCE   C2B 7773  10.555   5.747   3.926  0.2196  0.2007 -0.1309
  861PNCE   C3B 7774  10.691   5.871   4.383 -0.0950  0.2011 -0.1564
  861PNCE   D4B 7775  10.785   6.344   4.514 -0.3270 -0.0956 -0.0842
  861PNCE   C5B 7776  11.145   6.488   4.302 -0.2270  0.1563  0.1490
  861PNCE   C6B 7777  11.511   6.837   4.248  0.0492 -0.1652  0.0711
  862XCA    COO 7778  15.045   1.819   8.579 -0.2289  0.3187  0.1217
  862XCA     C1 7779  15.136   1.895   8.077 -0.0903 -0.1695  0.1472
  862XCA     C2 7780  15.085   1.848   7.602  0.2150  0.0758 -0.0255
  862XCA     C3 7781  15.053   2.015   7.273 -0.1806 -0.1881  0.1446
  862XCA     C4 7782  15.347   1.992   6.977 -0.0657 -0.0160  0.1685
  862XCA     C5 7783  15.488   2.337   6.638  0.1510  0.0593 -0.1947
  862XCA     C6 7784  15.684   2.677   6.486  0.4115 -0.5016 -0.0283
  863CHOL   ROH 7785   6.229   2.440   8.621  0.3196 -0.0648  0.3346
  863CHOL    R1 7786   6.195   2.333   8.361  0.1843 -0.0688  0.3530
  863CHOL    R2 7787   6.302   2.453   8.135 -0.0359 -0.0061  0.2801
  863CHOL    R3 7788   6.412   2.208   8.097  0.0567  0.0488  0.1904
  863CHOL    R4 7789   6.339   2.297   7.829  0.2306  0.2155  0.1961
  863CHOL    R5 7790   6.283   2.110   7.922  0.2104  0.1343  0.0249
  863CHOL    C1 7791   6.465   1.977   7.615  0.4728  0.3960  0.0629
  863CHOL    C2 7792   6.502   2.080   7.221  0.2271  0.0806 -0.3466
  864PNCE   AM1 7793   8.112   6.307   3.944  0.0303 -0.3293 -0.0240
  864PNCE   AM2 7794   8.280   5.952   3.878 -0.0132 -0.2472  0.2990
  864PNCE   T1A 7795   7.795   6.295   4.263 -0.0347  0.0669  0.3766
  864PNCE   C2A 7796   7.642   6.624   4.676 -0.1049  0.0491  0.1293
  864PNCE   C3A 7797   7.723   6.959   5.075 -0.0072 -0.1333 -0.1951
  864PNCE   C1B 7798   8.284   6.016   4.349  0.2673  0.3474  0.0198
  864PNCE   C2B 7799   8.534   5.996   4.676  0.1463 -0.1926 -0.0663
  864PNCE   C3B 7800   8.599   5.792   5.074  0.2038  0.0414  0.2385
  864PNCE   D4B 7801   8.536   5.568   5.473 -0.3661  0.0168 -0.4774
  864PNCE   C5B 7802   8.887   5.473   5.698  0.1536 -0.2265  0.2133
  864PNCE   C6B 7803   9.084   5.384   6.038 -0.0990  0.0370 -0.0414
  865PNCE   AM1 7804  12.459   3.901   8.897 -0.1297 -0.1041 -0.0019
  865PNCE   AM2 7805  12.539   3.540   8.885 -0.0998 -0.0442 -0.1740
  865PNCE   T1A 7806  12.712   3.750   8.500  0.0133 -0.0723 -0.1022
  865PNCE   C2A 7807  12.691   3.481   8.197  0.1005  0.4032  0.2641
  865PNCE   C3A 7808  12.885   3.616   7.887  0.0720 -0.0410 -0.1459
  865PNCE   C1B 7809  12.371   3.241   8.524 -0.1147 -0.1483  0.3098
  865PNCE   C2B 7810  12.536   2.985   8.285  0.2426 -0.1853  0.1100
  865PNCE   C3B 7811  12.926   3.067   8.175  0.1130  0.2722 -0.0132
  865PNCE   D4B 7812  13.038   3.031   7.748 -0.2541  0.0690 -0.2625
  865PNCE   C5B 7813  13.119   2.654   7.580  0.3010 -0.1577 -0.0480
  865PNCE   C6B 7814  13.091   2.594   7.149  0.0311 -0.0859  0.1291
  866PNCE   AM1 7815   5.792   5.226   4.176  0.1242 -0.3731  0.0249
  866PNCE   AM2 7816   5.784   5.569   4.216  0.1165 -0.2979  0.0284
  866PNCE   T1A 7817   5.552   5.166   4.563 -0.0088  0.1367 -0.0484
  866PNCE   C2A 7818   5.610   5.120   4.990 -0.0217  0.1762 -0.0489
  866PNCE   C3A 7819   5.594   5.010   5.399  0.0522  0.2669 -0.0070
  866PNCE   C1B 7820   5.649   5.700   4.642  0.2764 -0.1222  0.0127
  866PNCE   C2B 7821   5.674   5.566   5.016 -0.0249 -0.1600 -0.0969
  866PNCE   C3B 7822   5.858   5.515   5.469 -0.0736  0.0091  0.0824
  866PNCE   D4B 7823   5.948   5.597   5.839 -0.0835 -0.1218 -0.3789
  866PNCE   C5B 7824   5.836   5.249   6.086  0.0505  0.0756 -0.1001
  866PNCE   C6B 7825   5.748   4.937   6.360  0.0166 -0.4765  0.1266
  867CHOL   ROH 7826   1.703  10.568   8.309 -0.1030 -0.2350 -0.0984
  867CHOL    R1 7827   1.671  10.469   8.045 -0.1229 -0.0592 -0.1632
  867CHOL    R2 7828   1.520  10.600   7.855 -0.0419  0.1297 -0.1006
  867CHOL    R3 7829   1.748  10.584   7.709 -0.0338  0.1111 -0.0857
  867CHOL    R4 7830   1.534  10.510   7.522 -0.0184  0.0516 -0.0786
  867CHOL    R5 7831   1.714  10.394   7.566 -0.0127  0.0752 -0.0425
  867CHOL    C1 7832   1.757  10.442   7.190  0.0029 -0.0113 -0.0518
  867CHOL    C2 7833   1.871  10.345   6.835  0.1754 -0.0175  0.0974
  868PNCE   AM1 7834   2.091  11.021   4.498  0.1271 -0.1112  0.5535
  868PNCE   AM2 7835   1.823  11.163   4.345  0.1357  0.1843  0.1574
  868PNCE   T1A 7836   2.156  11.077   4.924  0.1080 -0.2660 -0.1353
  868PNCE   C2A 7837   2.029  10.863   5.366 -0.0721 -0.0300  0.2542
  868PNCE   C3A 7838   1.797  10.997   5.765 -0.2629  0.0342 -0.1508
  868PNCE   C1B 7839   1.634  11.171   4.810 -0.5099 -0.0131 -0.1395
  868PNCE   C2B 7840   1.651  11.247   5.264 -0.0134 -0.2167 -0.1099
  868PNCE   C3B 7841   1.539  11.502   5.618 -0.0271  0.1530 -0.0839
  868PNCE   D4B 7842   1.650  11.372   6.095 -0.5831  0.0390  0.1806
  868PNCE   C5B 7843   1.839  11.716   6.316 -0.0231  0.4468  0.3233
  868PNCE   C6B 7844   1.920  11.748   6.788 -0.1858 -0.2089 -0.0314
  869PNCE   AM1 7845   5.075   0.849   4.930  0.0668 -0.4844 -0.0182
  869PNCE   AM2 7846   5.346   1.070   4.886 -0.0658  0.1711 -0.1935
  869PNCE   T1A 7847   5.063   1.103   5.354  0.1826  0.3812 -0.0365
  869PNCE   C2A 7848   5.285   1.225   5.717  0.1638 -0.0278 -0.0881
  869PNCE   C3A 7849   5.124   1.234   6.111  0.4345  0.1142  0.2036
  869PNCE   C1B 7850   5.673   1.233   5.185 -0.0399 -0.1274  0.1181
  869PNCE   C2B 7851   5.765   1.360   5.688 -0.1780  0.1829  0.2260
  869PNCE   C3B 7852   6.080   1.628   5.855 -0.2252  0.0561  0.0352
  869PNCE   D4B 7853   6.375   1.921   5.973  0.1161  0.2666  0.1602
  869PNCE   C5B 7854   6.381   1.926   6.441  0.0084 -0.1950  0.2395
  869PNCE   C6B 7855   6.134   1.973   6.822  0.4135  0.2111 -0.1610
  870XCA    COO 7856   3.986  13.411   4.555 -0.2493  0.0810 -0.0286
  870XCA     C1 7857   4.051  13.542   4.989  0.1526 -0.0721  0.0420
  870XCA     C2 7858   4.093  13.447   5.384  0.0277  0.3174 -0.0664
  870XCA     C3 7859   4.246  13.560   5.861 -0.0446 -0.2289 -0.1387
  870XCA     C4 7860   4.208  13.925   6.064 -0.0422 -0.2603  0.0405
  870XCA     C5 7861   4.180  14.189   6.368 -0.0105  0.0419 -0.0899
  870XCA     C6 7862   4.048  14.566   6.572 -0.1192  0.1129  0.0408
  871CHOL   ROH 7863   9.844   1.045   5.951 -0.0451 -0.0348  0.1490
  871CHOL    R1 7864   9.832   0.897   6.193 -0.0839 -0.2834  0.0017
  871CHOL    R2 7865   9.756   0.632   6.201  0.0785 -0.3571 -0.2999
  871CHOL    R3 7866   9.994   0.602   6.331  0.0334 -0.3167 -0.2120
  871CHOL    R4 7867   9.860   0.342   6.358  0.0550 -0.3008 -0.1831
  871CHOL    R5 7868   9.941   0.464   6.520 -0.0089 -0.2636 -0.1976
  871CHOL    C1 7869  10.143   0.145   6.571 -0.0011 -0.2301 -0.0325
  871CHOL    C2 7870  10.200  -0.239   6.734 -0.1549 -0.0798  0.2267
  872CHOL   ROH 7871  15.282  10.465   4.964  0.1156  0.0146 -0.1169
  872CHOL    R1 7872  15.376  10.489   5.230  0.0667  0.0776 -0.1039
  872CHOL    R2 7873  15.229  10.405   5.448  0.0647  0.0504 -0.1171
  872CHOL    R3 7874  15.453  10.262   5.504  0.1046  0.1366 -0.0632
  872CHOL    R4 7875  15.300  10.264   5.755 -0.1385 -0.1934 -0.1808
  872CHOL    R5 7876  15.508  10.325   5.729 -0.1413 -0.0340  0.0561
  872CHOL    C1 7877  15.552  10.048   5.987 -0.2193 -0.2544 -0.1672
  872CHOL    C2 7878  15.400   9.948   6.311  0.1537 -0.5008 -0.1005
  873XCA    COO 7879  15.581   9.058   5.491 -0.3134 -0.2569  0.0033
  873XCA     C1 7880  15.828   9.112   5.757 -0.0858  0.2596  0.2856
  873XCA     C2 7881  16.025   8.865   6.041 -0.1349  0.1786 -0.1496
  873XCA     C3 7882  16.022   8.611   6.559  0.1841  0.1274  0.1564
  873XCA     C4 7883  15.972   8.640   7.027 -0.2348  0.2878  0.0691
  873XCA     C5 7884  16.237   8.827   7.375  0.0950  0.2200  0.0946
  873XCA     C6 7885  16.371   8.957   7.770 -0.1142  0.3139  0.3179
  874CHOL   ROH 7886   8.473  15.324   5.131  0.0573 -0.1506  0.0135
  874CHOL    R1 7887   8.410  15.104   5.298 -0.0136 -0.0631  0.1040
  874CHOL    R2 7888   8.545  15.053   5.533  0.0098 -0.0437  0.0963
  874CHOL    R3 7889   8.295  15.056   5.639  0.0315  0.1127  0.1447
  874CHOL    R4 7890   8.472  15.006   5.868  0.0251 -0.3071  0.0643
  874CHOL    R5 7891   8.300  14.886   5.808 -0.1141 -0.0669 -0.0279
  874CHOL    C1 7892   8.194  14.981   6.162  0.0544 -0.3137  0.0913
  874CHOL    C2 7893   8.374  14.831   6.411  0.0446  0.0718  0.0858
  875PNCE   AM1 7894  11.695   2.889   4.843 -0.3905 -0.1854  0.1568
  875PNCE   AM2 7895  11.654   2.552   4.835 -0.0109  0.1949 -0.0480
  875PNCE   T1A 7896  11.554   3.028   5.150  0.2003  0.3657 -0.0244
  875PNCE   C2A 7897  11.482   3.215   5.485  0.2197 -0.0353 -0.2327
  875PNCE   C3A 7898  11.705   3.518   5.653  0.0505 -0.1989  0.1208
  875PNCE   C1B 7899  11.710   2.446   5.315  0.0135 -0.1123  0.6722
  875PNCE   C2B 7900  11.705   2.582   5.753  0.2242 -0.0433  0.1485
  875PNCE   C3B 7901  11.704   2.514   6.251  0.0981 -0.2998  0.2603
  875PNCE   D4B 7902  11.708   2.605   6.663  0.0375  0.1462 -0.0692
  875PNCE   C5B 7903  12.022   2.248   6.867 -0.0472  0.1686 -0.2602
  875PNCE   C6B 7904  12.239   1.956   7.156  0.4468  0.1370  0.0956
  876CHOL   ROH 7905   7.389   1.980   8.850  0.2081  0.1927 -0.0554
  876CHOL    R1 7906   7.478   2.198   8.693 -0.0700  0.2307 -0.1671
  876CHOL    R2 7907   7.722   2.197   8.562  0.0073  0.5363 -0.0399
  876CHOL    R3 7908   7.569   2.253   8.344  0.0181  0.1215 -0.1610
  876CHOL    R4 7909   7.838   2.344   8.272 -0.1068  0.5773 -0.0650
  876CHOL    R5 7910   7.655   2.461   8.263 -0.3244  0.2356 -0.2394
  876CHOL    C1 7911   7.762   2.481   7.898 -0.1630  0.2118 -0.1932
  876CHOL    C2 7912   8.042   2.341   7.563  0.0985  0.0385  0.1733
  877CHOL   ROH 7913   0.039   2.259   5.698  0.0373  0.0806 -0.0608
  877CHOL    R1 7914   0.277   2.201   5.840 -0.0106  0.0418  0.0041
  877CHOL    R2 7915   0.393   2.380   6.015  0.0438  0.0762 -0.0660
  877CHOL    R3 7916   0.376   2.171   6.189 -0.0783  0.1681  0.0346
  877CHOL    R4 7917   0.567   2.356   6.313  0.2014  0.0181 -0.1612
  877CHOL    R5 7918   0.599   2.145   6.271 -0.0537 -0.0381 -0.0910
  877CHOL    C1 7919   0.652   2.147   6.649  0.1786  0.0705 -0.1222
  877CHOL    C2 7920   0.812   1.911   6.837  0.2175 -0.2196 -0.0480
  878CHOL   ROH 7921   4.917   2.527   7.538  0.1305 -0.1286  0.0055
  878CHOL    R1 7922   5.030   2.692   7.338  0.1109 -0.0484  0.0613
  878CHOL    R2 7923   5.040   2.618   7.072  0.2277 -0.0103  0.0586
  878CHOL    R3 7924   4.915   2.857   7.035  0.1249 -0.0646  0.0458
  878CHOL    R4 7925   5.031   2.791   6.773  0.4863  0.1485  0.1387
  878CHOL    R5 7926   5.059   2.976   6.885  0.2397  0.1080  0.2832
  878CHOL    C1 7927   4.908   3.116   6.564  0.5402  0.1900  0.1733
  878CHOL    C2 7928   5.341   3.231   6.423 -0.2324  0.2310  0.2017
  879CHOL   ROH 7929   2.460  11.422   4.912  0.1503  0.0589  0.1298
  879CHOL    R1 7930   2.396  11.363   5.182  0.0567  0.1799  0.1355
  879CHOL    R2 7931   2.437  11.115   5.294 -0.3250  0.1140  0.1597
  879CHOL    R3 7932   2.575  11.258   5.480 -0.1012 -0.0739  0.1415
  879CHOL    R4 7933   2.468  11.028   5.628 -0.2409 -0.0103  0.1198
  879CHOL    R5 7934   2.444  11.239   5.679 -0.0178 -0.0082  0.1977
  879CHOL    C1 7935   2.615  11.112   5.996  0.0181 -0.2589  0.0795
  879CHOL    C2 7936   2.540  11.343   6.355  0.3151 -0.0566  0.1295
  880CHOL   ROH 7937   4.400  10.460   5.871 -0.0202 -0.2432 -0.0821
  880CHOL    R1 7938   4.132  10.545   5.907 -0.0351 -0.2772 -0.1184
  880CHOL    R2 7939   3.927  10.369   5.966  0.0352 -0.2648  0.1636
  880CHOL    R3 7940   3.886  10.538   6.175  0.0389 -0.0055 -0.0390
  880CHOL    R4 7941   3.619  10.440   6.105  0.0412 -0.1388  0.1156
  880CHOL    R5 7942   3.680  10.648   6.122  0.0133 -0.1011 -0.1539
  880CHOL    C1 7943   3.401  10.639   6.382  0.0481  0.1780 -0.1025
  880CHOL    C2 7944   3.093  10.452   6.513  0.1314 -0.1848  0.1945
  881PNCE   AM1 7945  10.295  10.940   4.957  0.1008  0.3748  0.4921
  881PNCE   AM2 7946  10.325  10.639   4.814  0.0626 -0.0179  0.3010
  881PNCE   T1A 7947  10.412  10.705   5.356  0.0312 -0.0798 -0.0633
  881PNCE   C2A 7948  10.708  10.627   5.743 -0.3903  0.5211  0.2720
  881PNCE   C3A 7949  10.703  10.660   6.131 -0.2184 -0.1499  0.0376
  881PNCE   C1B 7950  10.758  10.690   5.018  0.2137 -0.0102 -0.1020
  881PNCE   C2B 7951  11.029  10.698   5.386  0.0405 -0.0988  0.0598
  881PNCE   C3B 7952  11.429  10.575   5.436  0.0404 -0.1852 -0.0918
  881PNCE   D4B 7953  11.580  10.697   5.766 -0.1540  0.0293 -0.0168
  881PNCE   C5B 7954  11.884  10.854   5.987  0.2663 -0.1720  0.0730
  881PNCE   C6B 7955  11.750  11.265   6.220 -0.2044  0.0625 -0.1636
  882XCA    COO 7956   5.011   2.067   8.896  0.0914 -0.0353 -0.1351
  882XCA     C1 7957   4.850   1.989   8.483 -0.4931 -0.2000 -0.0459
  882XCA     C2 7958   5.023   1.768   8.139  0.1964  0.0309 -0.1230
  882XCA     C3 7959   5.104   1.532   7.754 -0.1160  0.0868 -0.4205
  882XCA     C4 7960   4.888   1.605   7.277 -0.0101  0.4231 -0.0082
  882XCA     C5 7961   4.602   1.565   7.022 -0.3441  0.3973 -0.0221
  882XCA     C6 7962   4.298   1.551   6.744  0.2599 -0.0729  0.0954
  883XCA    COO 7963   6.747  13.241   4.872 -0.4841 -0.3722  0.1808
  883XCA     C1 7964   6.770  13.234   5.346 -0.1731  0.1507  0.2378
  883XCA     C2 7965   6.708  13.315   5.816  0.4013 -0.2387  0.0911
  883XCA     C3 7966   6.691  13.202   6.208  0.1869 -0.4405  0.2222
  883XCA     C4 7967   6.727  12.932   6.522  0.2910 -0.0024 -0.0807
  883XCA     C5 7968   7.089  12.736   6.779 -0.0017 -0.1424  0.2489
  883XCA     C6 7969   7.496  12.615   7.098  0.0071  0.0271  0.1100
  884PNCE   AM1 7970  11.958   0.429   5.327 -0.1013 -0.1886 -0.0652
  884PNCE   AM2 7971  11.862   0.162   5.277  0.0085  0.3249 -0.1463
  884PNCE   T1A 7972  12.014   0.307   5.791  0.0342  0.0825 -0.2310
  884PNCE   C2A 7973  12.349   0.327   6.079 -0.1896 -0.0759  0.1180
  884PNCE   C3A 7974  12.363   0.179   6.527 -0.0842  0.3751  0.1983
  884PNCE   C1B 7975  12.124  -0.148   5.476 -0.0917 -0.0069  0.0520
  884PNCE   C2B 7976  12.176  -0.212   5.820  0.1593 -0.3443  0.0640
  884PNCE   C3B 7977  12.033  -0.057   6.260  0.4666  0.2542 -0.0697
  884PNCE   D4B 7978  11.769   0.089   6.613 -0.0611 -0.1503 -0.1746
  884PNCE   C5B 7979  11.889   0.504   6.829  0.2269 -0.1637 -0.2124
  884PNCE   C6B 7980  11.860   0.913   6.919  0.2586  0.0253 -0.0453
  885CHOL   ROH 7981   7.868  10.090   8.571  0.2994 -0.0748 -0.0201
  885CHOL    R1 7982   7.837  10.307   8.392  0.1666 -0.0905 -0.0177
  885CHOL    R2 7983   7.936  10.559   8.446  0.0480 -0.0387 -0.0327
  885CHOL    R3 7984   8.056  10.528   8.204  0.0319  0.0189 -0.0478
  885CHOL    R4 7985   8.055  10.818   8.249  0.0366  0.0076  0.0216
  885CHOL    R5 7986   7.978  10.714   8.074  0.0248  0.0503  0.0019
  885CHOL    C1 7987   8.237  10.939   7.908  0.0148  0.0886  0.0389
  885CHOL    C2 7988   7.967  11.262   7.957  0.1470  0.0671  0.2710
  886XCA    COO 7989  12.308   1.175   7.393 -0.1149 -0.2770 -0.0312
  886XCA     C1 7990  12.405   0.869   7.011  0.0472 -0.0343  0.0852
  886XCA     C2 7991  12.568   0.413   6.898 -0.1276 -0.0254 -0.2147
  886XCA     C3 7992  12.719  -0.082   6.730 -0.2814  0.3233 -0.5442
  886XCA     C4 7993  12.553  -0.470   6.742 -0.3059 -0.1731  0.3346
  886XCA     C5 7994  12.448  -0.866   6.628  0.1810  0.0692 -0.0285
  886XCA     C6 7995  12.187  -1.201   6.558  0.2067 -0.0866  0.1347
  887PNCE   AM1 7996   0.032   9.092   4.642 -0.2790  0.0714 -0.1652
  887PNCE   AM2 7997   0.285   8.782   4.433 -0.0995  0.0972 -0.1378
  887PNCE   T1A 7998   0.123   9.346   4.989 -0.1685 -0.3528 -0.0847
  887PNCE   C2A 7999   0.111   9.436   5.387 -0.0594 -0.0340 -0.1388
  887PNCE   C3A 8000   0.334   9.464   5.813  0.3481 -0.1760  0.2004
  887PNCE   C1B 8001   0.505   8.958   4.863 -0.0075 -0.3016 -0.0354
  887PNCE   C2B 8002   0.438   9.006   5.336 -0.1903 -0.0896  0.1084
  887PNCE   C3B 8003   0.477   9.014   5.666 -0.0099 -0.0728 -0.0218
  887PNCE   D4B 8004   0.641   9.128   6.046 -0.3230 -0.0847 -0.0188
  887PNCE   C5B 8005   0.549   8.790   6.262  0.2123  0.0550  0.1882
  887PNCE   C6B 8006   0.641   8.436   6.239  0.0661  0.1106  0.0579
  888PNCE   AM1 8007   9.955   9.844   4.853 -0.0476  0.0497  0.2653
  888PNCE   AM2 8008   9.829   9.831   4.502  0.0648  0.0344 -0.0765
  888PNCE   T1A 8009   9.894   9.768   5.246  0.0730 -0.0829  0.0233
  888PNCE   C2A 8010   9.986   9.723   5.653  0.0665 -0.2663  0.0731
  888PNCE   C3A 8011   9.999   9.896   6.068  0.1552 -0.0942  0.0801
  888PNCE   C1B 8012  10.127   9.503   4.524  0.2605  0.2228 -0.1694
  888PNCE   C2B 8013  10.514   9.198   4.501  0.3438  0.0600 -0.4747
  888PNCE   C3B 8014  10.604   8.789   4.701 -0.1102 -0.2207 -0.0521
  888PNCE   D4B 8015  10.415   8.389   4.691 -0.1506  0.1000 -0.0071
  888PNCE   C5B 8016  10.097   8.272   4.433  0.1216  0.1190  0.0173
  888PNCE   C6B 8017  10.103   8.341   4.006 -0.1632  0.1983  0.1655
  889PNCE   AM1 8018   9.569   9.325   4.491 -0.1427 -0.1369  0.0001
  889PNCE   AM2 8019   9.280   9.286   4.350  0.0109 -0.1728  0.1136
  889PNCE   T1A 8020   9.674   9.410   4.902 -0.3185  0.0100 -0.5209
  889PNCE   C2A 8021   9.618   9.242   5.261 -0.0014  0.3828 -0.0998
  889PNCE   C3A 8022   9.925   9.237   5.612 -0.2892 -0.0530  0.0569
  889PNCE   C1B 8023   9.176   9.290   4.907  0.1578  0.0426  0.1493
  889PNCE   C2B 8024   9.061   9.096   5.300 -0.2365 -0.2078  0.0069
  889PNCE   C3B 8025   8.920   8.894   5.684  0.0474 -0.0446 -0.0470
  889PNCE   D4B 8026   8.878   8.433   5.871  0.2698  0.2141  0.0849
  889PNCE   C5B 8027   8.631   8.277   6.045  0.2055 -0.1262 -0.2552
  889PNCE   C6B 8028   8.444   8.377   6.430 -0.1435 -0.1003  0.0256
  890CHOL   ROH 8029   0.718   0.384   8.234  0.0363 -0.1899  0.0197
  890CHOL    R1 8030   0.793   0.364   7.962 -0.1149 -0.1314 -0.0287
  890CHOL    R2 8031   0.608   0.350   7.756 -0.2330  0.0684  0.0528
  890CHOL    R3 8032   0.749   0.562   7.660 -0.1451  0.0186  0.0763
  890CHOL    R4 8033   0.735   0.376   7.436 -0.2217  0.0694  0.0583
  890CHOL    R5 8034   0.915   0.465   7.519 -0.1904 -0.0215  0.0624
  890CHOL    C1 8035   0.940   0.590   7.159 -0.1326  0.0233  0.0836
  890CHOL    C2 8036   1.123   0.475   6.896  0.4462 -0.1128 -0.0734
  891PNCE   AM1 8037   7.523   4.469   4.635 -0.1902  0.3731 -0.4325
  891PNCE   AM2 8038   7.640   4.798   4.464  0.2977 -0.0575  0.2946
  891PNCE   T1A 8039   7.369   4.371   5.146 -0.1568  0.0128  0.1269
  891PNCE   C2A 8040   7.007   4.258   5.412  0.0258  0.0649 -0.0836
  891PNCE   C3A 8041   6.842   4.113   5.847 -0.2528  0.1352  0.1394
  891PNCE   C1B 8042   7.504   5.205   4.591 -0.2229 -0.2829  0.1094
  891PNCE   C2B 8043   7.627   5.603   4.843  0.1625  0.0648 -0.0010
  891PNCE   C3B 8044   7.803   5.892   4.775  0.0047 -0.1163  0.2867
  891PNCE   D4B 8045   8.083   6.263   4.718  0.0161 -0.0988  0.4681
  891PNCE   C5B 8046   8.377   6.261   5.057 -0.0179  0.1197 -0.1438
  891PNCE   C6B 8047   8.584   6.592   5.255 -0.1079  0.2401  0.3032
  892PNCE   AM1 8048   1.249   6.464   4.946  0.1707 -0.0020  0.0975
  892PNCE   AM2 8049   1.320   6.688   5.164  0.3141  0.2760  0.1371
  892PNCE   T1A 8050   1.092   6.270   5.365 -0.0616  0.2259 -0.4256
  892PNCE   C2A 8051   1.035   6.129   5.773 -0.1090  0.1130 -0.1787
  892PNCE   C3A 8052   0.589   6.074   6.098  0.1809  0.1470  0.0054
  892PNCE   C1B 8053   1.633   6.677   5.497 -0.0826  0.0965  0.3715
  892PNCE   C2B 8054   1.736   6.800   5.866 -0.0424  0.1130  0.1563
  892PNCE   C3B 8055   1.438   6.921   6.293 -0.0080  0.1912  0.2144
  892PNCE   D4B 8056   0.941   6.867   6.409 -0.1594  0.1249 -0.1775
  892PNCE   C5B 8057   0.619   7.185   6.475 -0.1694  0.0780  0.3077
  892PNCE   C6B 8058   0.262   7.353   6.545  0.1547 -0.1079 -0.0385
  893CHOL   ROH 8059  14.236  14.065   6.620  0.0172 -0.2199  0.3042
  893CHOL    R1 8060  14.446  14.240   6.693 -0.0191 -0.1396  0.2191
  893CHOL    R2 8061  14.468  14.347   6.947  0.0263 -0.1059  0.2018
  893CHOL    R3 8062  14.718  14.240   6.935  0.0591 -0.0216  0.1318
  893CHOL    R4 8063  14.706  14.370   7.197  0.0772 -0.0584  0.1491
  893CHOL    R5 8064  14.858  14.401   7.043  0.0310  0.0103  0.1189
  893CHOL    C1 8065  15.079  14.283   7.330  0.1375  0.0486  0.0527
  893CHOL    C2 8066  15.125  14.347   7.712  0.0996  0.0232  0.1530
  894XCA    COO 8067  11.618   5.807   7.665  0.0494 -0.0105 -0.0059
  894XCA     C1 8068  11.444   5.351   7.449 -0.0927 -0.2461  0.1582
  894XCA     C2 8069  11.227   5.062   7.116 -0.1865  0.0926 -0.1754
  894XCA     C3 8070  11.087   5.121   6.658 -0.1196 -0.1369  0.2010
  894XCA     C4 8071  10.857   5.199   6.401 -0.0584 -0.1321 -0.0284
  894XCA     C5 8072  10.378   5.357   6.179 -0.2076 -0.1532  0.0630
  894XCA     C6 8073  10.031   5.451   5.933  0.1963  0.0283  0.1365
  895PNCE   AM1 8074   4.381  15.168   4.739  0.2134  0.2995  0.3000
  895PNCE   AM2 8075   4.108  15.051   4.581  0.0086 -0.1894  0.0407
  895PNCE   T1A 8076   4.328  15.403   5.185  0.0484  0.1304 -0.1306
  895PNCE   C2A 8077   4.527  15.570   5.525 -0.0229  0.1095  0.0493
  895PNCE   C3A 8078   4.497  15.853   5.887 -0.1121 -0.0841 -0.0155
  895PNCE   C1B 8079   3.883  15.148   4.997  0.0104  0.0418 -0.1514
  895PNCE   C2B 8080   3.822  15.333   5.402  0.3227  0.1430 -0.5025
  895PNCE   C3B 8081   3.872  15.558   5.644  0.0208 -0.0543 -0.0237
  895PNCE   D4B 8082   3.991  15.432   6.055 -0.0763  0.2756  0.2711
  895PNCE   C5B 8083   3.716  15.368   6.444 -0.1461  0.1717 -0.0081
  895PNCE   C6B 8084   3.707  15.529   6.850  0.1119  0.2188 -0.1766
  896XCA    COO 8085  13.056  11.686   5.383  0.1257 -0.0786 -0.0995
  896XCA     C1 8086  13.145  11.608   5.900 -0.0187  0.0809  0.0458
  896XCA     C2 8087  13.439  11.508   6.213  0.1666  0.0135 -0.0535
  896XCA     C3 8088  13.427  11.337   6.524 -0.0185 -0.0534  0.0130
  896XCA     C4 8089  13.783  11.366   6.742 -0.1295  0.0803  0.1501
  896XCA     C5 8090  14.148  11.048   6.752  0.0855  0.0020  0.0349
  896XCA     C6 8091  14.069  10.645   6.557  0.1668 -0.1909 -0.1674
  897CHOL   ROH 8092   7.451   6.824   8.104 -0.1919  0.3252 -0.0669
  897CHOL    R1 8093   7.429   6.688   7.857 -0.2330  0.1231  0.0454
  897CHOL    R2 8094   7.185   6.619   7.745 -0.2659  0.2934 -0.0018
  897CHOL    R3 8095   7.282   6.754   7.530 -0.0141 -0.0044 -0.0788
  897CHOL    R4 8096   7.075   6.581   7.420 -0.2481  0.2386 -0.0010
  897CHOL    R5 8097   7.281   6.594   7.353 -0.2167 -0.1223  0.0324
  897CHOL    C1 8098   7.102   6.686   7.029 -0.0016 -0.0729 -0.0729
  897CHOL    C2 8099   7.426   6.634   6.776  0.2352 -0.1190 -0.2181
  898CHOL   ROH 8100   3.257  10.532   4.702  0.1205 -0.0522 -0.0695
  898CHOL    R1 8101   3.303  10.494   4.978  0.0796 -0.1696 -0.0787
  898CHOL    R2 8102   3.117  10.562   5.171  0.1885  0.0737 -0.0583
  898CHOL    R3 8103   3.149  10.304   5.248 -0.1904  0.0069 -0.1041
  898CHOL    R4 8104   3.082  10.448   5.495  0.3877  0.1429 -0.0103
  898CHOL    R5 8105   3.254  10.319   5.463  0.1169 -0.1831 -0.2349
  898CHOL    C1 8106   3.091  10.138   5.756  0.1480  0.1207 -0.0253
  898CHOL    C2 8107   3.074  10.015   6.129 -0.0174 -0.5499  0.0346
  899CHOL   ROH 8108   0.553   4.724   8.021 -0.0907  0.0037 -0.0901
  899CHOL    R1 8109   0.704   4.632   7.800 -0.1037  0.0227 -0.1069
  899CHOL    R2 8110   0.749   4.787   7.576 -0.0858  0.0557 -0.0803
  899CHOL    R3 8111   1.010   4.732   7.630 -0.0922  0.0135 -0.0916
  899CHOL    R4 8112   0.999   4.761   7.338 -0.0729  0.1572 -0.0786
  899CHOL    R5 8113   1.080   4.591   7.449 -0.0898  0.0978 -0.1567
  899CHOL    C1 8114   1.389   4.694   7.250 -0.0716  0.1768 -0.0882
  899CHOL    C2 8115   1.503   4.813   6.844  0.0978  0.1504 -0.1477
  900CHOL   ROH 8116  10.092   2.179   7.001 -0.0471  0.2819 -0.1127
  900CHOL    R1 8117  10.262   2.360   7.137  0.0041  0.1984 -0.0639
  900CHOL    R2 8118  10.176   2.607   7.225  0.0685  0.1937  0.0183
  900CHOL    R3 8119  10.272   2.519   7.464  0.0578  0.0932 -0.0145
  900CHOL    R4 8120  10.358   2.799   7.448  0.0595  0.0970  0.1091
  900CHOL    R5 8121  10.485   2.627   7.486  0.0562  0.0822  0.0418
  900CHOL    C1 8122  10.553   2.828   7.802  0.0442 -0.0535  0.1313
  900CHOL    C2 8123  10.533   3.073   7.972 -0.0693  0.0484 -0.0218
  901CHOL   ROH 8124  11.664  11.773   8.273  0.0672 -0.1154 -0.2046
  901CHOL    R1 8125  11.598  11.781   7.998  0.0183  0.0670 -0.1895
  901CHOL    R2 8126  11.390  11.934   7.899 -0.0058  0.1294 -0.0523
  901CHOL    R3 8127  11.583  12.034   7.737 -0.0352  0.2436 -0.0168
  901CHOL    R4 8128  11.345  12.018   7.567 -0.0426  0.3027 -0.0039
  901CHOL    R5 8129  11.541  11.933   7.524 -0.0372  0.3542 -0.0670
  901CHOL    C1 8130  11.501  12.161   7.221 -0.0916  0.5108  0.0576
  901CHOL    C2 8131  11.557  12.089   6.823 -0.0983  0.0284  0.0303
  902PNCE   AM1 8132   4.800   7.470   4.587 -0.2101  0.1437  0.2555
  902PNCE   AM2 8133   4.705   7.664   4.943 -0.6831  0.1910  0.2765
  902PNCE   T1A 8134   5.220   7.454   4.781  0.0045  0.0277 -0.3031
  902PNCE   C2A 8135   5.643   7.595   4.775  0.0757 -0.0032  0.0628
  902PNCE   C3A 8136   5.971   7.433   4.988 -0.0722  0.5278 -0.2162
  902PNCE   C1B 8137   4.545   7.550   5.335 -0.3206  0.1924  0.1392
  902PNCE   C2B 8138   4.755   7.213   5.724 -0.2763 -0.0032  0.0711
  902PNCE   C3B 8139   4.980   7.080   6.014 -0.0658  0.1990  0.0364
  902PNCE   D4B 8140   5.134   6.789   6.424 -0.0591  0.0951  0.2590
  902PNCE   C5B 8141   4.881   6.357   6.560 -0.0958  0.1608 -0.2887
  902PNCE   C6B 8142   5.027   6.015   6.860  0.0834 -0.2140  0.4032
  903CHOL   ROH 8143  15.189  13.227   9.086  0.1450 -0.1677 -0.0031
  903CHOL    R1 8144  15.123  13.064   8.864 -0.0104 -0.1188  0.0061
  903CHOL    R2 8145  14.864  12.984   8.811 -0.0897  0.1183  0.0137
  903CHOL    R3 8146  14.914  13.094   8.567  0.0109  0.0615  0.0085
  903CHOL    R4 8147  14.740  12.865   8.511 -0.0515  0.1153 -0.0009
  903CHOL    R5 8148  14.934  12.906   8.420 -0.0155  0.0335  0.0430
  903CHOL    C1 8149  14.715  12.899   8.108  0.0650  0.0603 -0.0142
  903CHOL    C2 8150  14.642  12.540   7.987 -0.1432  0.1110 -0.2655
  904PNCE   AM1 8151  15.455   5.851   4.017  0.3484 -0.1134  0.1297
  904PNCE   AM2 8152  15.485   5.559   3.887  0.1067 -0.2742  0.1726
  904PNCE   T1A 8153  15.715   5.983   4.252  0.1577  0.0607 -0.2525
  904PNCE   C2A 8154  15.716   5.943   4.689 -0.0952  0.3674  0.2469
  904PNCE   C3A 8155  15.715   5.883   5.111 -0.2309  0.3454  0.1154
  904PNCE   C1B 8156  15.607   5.484   4.355 -0.1844  0.0439  0.0881
  904PNCE   C2B 8157  15.504   5.510   4.851  0.0623 -0.0137  0.1212
  904PNCE   C3B 8158  15.241   5.667   5.230  0.3472 -0.2800  0.1338
  904PNCE   D4B 8159  15.451   5.886   5.612  0.1303 -0.0991  0.1472
  904PNCE   C5B 8160  15.614   5.538   5.913  0.1111 -0.3432 -0.3146
  904PNCE   C6B 8161  15.426   5.469   6.236 -0.1212 -0.0346 -0.2248
  905CHOL   ROH 8162   5.604   7.553   8.021  0.1056 -0.2829 -0.2451
  905CHOL    R1 8163   5.435   7.680   7.833  0.1607 -0.1265 -0.1907
  905CHOL    R2 8164   5.518   7.893   7.677  0.2664 -0.1195 -0.1264
  905CHOL    R3 8165   5.433   7.735   7.473  0.1637 -0.0058 -0.1728
  905CHOL    R4 8166   5.520   7.984   7.344  0.0552  0.0828 -0.0749
  905CHOL    R5 8167   5.325   7.887   7.322  0.0539  0.0733 -0.0177
  905CHOL    C1 8168   5.441   7.889   6.958 -0.1641  0.3074 -0.0884
  905CHOL    C2 8169   5.731   8.326   6.966 -0.0676 -0.0631 -0.2332
  906PNCE   AM1 8170   7.665  15.163   5.015 -0.1869 -0.2208  0.2515
  906PNCE   AM2 8171   7.389  14.851   5.216 -0.3175  0.0503  0.1071
  906PNCE   T1A 8172   7.607  15.308   5.434 -0.0128 -0.1661 -0.1987
  906PNCE   C2A 8173   7.603  15.399   5.795 -0.5247  0.2314  0.4378
  906PNCE   C3A 8174   7.349  15.588   6.066 -0.0301 -0.1779  0.0294
  906PNCE   C1B 8175   7.192  14.460   5.423  0.2368  0.0922 -0.1283
  906PNCE   C2B 8176   7.312  14.038   5.528  0.2686 -0.0328  0.0732
  906PNCE   C3B 8177   7.216  13.508   5.617  0.0041  0.1271  0.3278
  906PNCE   D4B 8178   7.253  13.073   5.900 -0.2597 -0.2079 -0.2742
  906PNCE   C5B 8179   7.016  12.749   6.131 -0.0471  0.0056  0.2340
  906PNCE   C6B 8180   6.728  12.474   6.138 -0.1548  0.3514  0.0880
  907PNCE   AM1 8181  10.945   3.464   4.417  0.0482  0.1544  0.1470
  907PNCE   AM2 8182  10.869   3.259   4.470  0.2338  0.2503 -0.0280
  907PNCE   T1A 8183  11.108   3.674   4.773 -0.2320 -0.5502 -0.0874
  907PNCE   C2A 8184  11.323   4.001   4.889 -0.3640 -0.1547 -0.1612
  907PNCE   C3A 8185  11.482   4.277   5.149  0.0498 -0.0716 -0.1309
  907PNCE   C1B 8186  10.934   3.198   4.880  0.0905  0.1395 -0.0587
  907PNCE   C2B 8187  10.981   3.273   5.292  0.1896 -0.3521  0.2528
  907PNCE   C3B 8188  10.807   3.527   5.558  0.1372  0.1783  0.3908
  907PNCE   D4B 8189  10.829   3.860   5.917 -0.1833  0.2756  0.1104
  907PNCE   C5B 8190  11.108   3.753   6.259  0.2391 -0.0826  0.0539
  907PNCE   C6B 8191  11.395   3.543   6.506  0.3963 -0.1698  0.0777
  908PNCE   AM1 8192  15.304  10.424   4.332 -0.1568 -0.0995  0.1316
  908PNCE   AM2 8193  15.672  10.353   4.466 -0.1211 -0.0934 -0.0431
  908PNCE   T1A 8194  14.950  10.422   4.608  0.1559  0.1729  0.1690
  908PNCE   C2A 8195  14.763  10.595   5.001 -0.2391 -0.0509 -0.3377
  908PNCE   C3A 8196  14.663  10.493   5.523 -0.0248  0.1535 -0.1409
  908PNCE   C1B 8197  15.755  10.348   4.893 -0.0425 -0.1222  0.3542
  908PNCE   C2B 8198  15.843  10.442   5.296 -0.0961 -0.8169 -0.0244
  908PNCE   C3B 8199  15.967  10.402   5.694 -0.0537 -0.2185  0.0126
  908PNCE   D4B 8200  16.004  10.060   6.064  0.1434  0.0768 -0.1802
  908PNCE   C5B 8201  15.883   9.726   6.358  0.1522 -0.1945  0.0657
  908PNCE   C6B 8202  16.056   9.369   6.273  0.0688  0.4813 -0.0760
  909PNCE   AM1 8203   6.215   5.779   4.384  0.0961  0.2127  0.2308
  909PNCE   AM2 8204   6.454   5.675   4.281 -0.2580  0.3583  0.3678
  909PNCE   T1A 8205   6.310   6.285   4.534 -0.4874 -0.1351  0.0359
  909PNCE   C2A 8206   6.486   6.484   4.921 -0.0660  0.2029  0.0538
  909PNCE   C3A 8207   6.574   6.573   5.377 -0.2238 -0.0818 -0.0549
  909PNCE   C1B 8208   6.795   5.461   4.524 -0.1065 -0.0253 -0.2805
  909PNCE   C2B 8209   7.060   5.199   4.834 -0.0425  0.1381 -0.0582
  909PNCE   C3B 8210   7.317   5.259   5.120 -0.1734 -0.0194  0.1346
  909PNCE   D4B 8211   7.338   5.372   5.497  0.2044  0.0777 -0.2195
  909PNCE   C5B 8212   7.571   5.796   5.468  0.0008  0.2954  0.3826
  909PNCE   C6B 8213   7.466   6.118   5.647 -0.0028  0.0167 -0.0809
  910XCA    COO 8214  11.681  11.339   5.163  0.0075  0.2328  0.2616
  910XCA     C1 8215  11.458  11.128   5.575 -0.0069 -0.3637 -0.1626
  910XCA     C2 8216  11.313  11.403   5.924 -0.1281 -0.1657 -0.0271
  910XCA     C3 8217  11.224  11.658   6.181  0.0189 -0.3380 -0.3707
  910XCA     C4 8218  11.358  12.135   6.352 -0.1520 -0.0453  0.0288
  910XCA     C5 8219  11.492  12.569   6.262 -0.1925 -0.1299 -0.3052
  910XCA     C6 8220  11.160  12.709   6.195  0.4920 -0.1728 -0.2668
  911PNCE   AM1 8221   6.646  14.451   5.142  0.4149 -0.1501  0.0973
  911PNCE   AM2 8222   6.262  14.332   5.131 -0.2566 -0.0229  0.2804
  911PNCE   T1A 8223   6.620  14.595   5.595 -0.1956  0.1460 -0.0228
  911PNCE   C2A 8224   6.699  14.723   6.035 -0.1869 -0.1391 -0.0647
  911PNCE   C3A 8225   6.772  14.797   6.429  0.0214  0.0659  0.1288
  911PNCE   C1B 8226   6.244  14.172   5.485 -0.0821  0.0729  0.3506
  911PNCE   C2B 8227   6.169  14.334   5.963  0.2062  0.1607 -0.1834
  911PNCE   C3B 8228   5.847  14.302   6.275  0.1314  0.2558 -0.0403
  911PNCE   D4B 8229   5.391  14.285   6.393 -0.3302  0.1521  0.1638
  911PNCE   C5B 8230   5.212  14.669   6.543  0.0653  0.0630  0.4975
  911PNCE   C6B 8231   4.933  15.025   6.612 -0.0684  0.5294  0.0815
  912CHOL   ROH 8232  14.859   6.876   7.209 -0.2660 -0.0510  0.0276
  912CHOL    R1 8233  15.003   6.649   7.124 -0.4205 -0.1369 -0.0068
  912CHOL    R2 8234  14.935   6.506   6.898 -0.3490  0.1185 -0.1910
  912CHOL    R3 8235  15.194   6.552   6.829 -0.2240 -0.1009  0.1057
  912CHOL    R4 8236  15.122   6.305   6.687 -0.4298  0.1979 -0.3407
  912CHOL    R5 8237  15.293   6.334   6.820 -0.4980 -0.2239 -0.1407
  912CHOL    C1 8238  15.474   6.232   6.500 -0.3594  0.0381 -0.1493
  912CHOL    C2 8239  15.644   5.859   6.543 -0.1605 -0.0060 -0.3020
  913CHOL   ROH 8240   4.692   6.125   5.743  0.2518  0.2350  0.1305
  913CHOL    R1 8241   4.735   5.959   5.968  0.0641  0.0692  0.0473
  913CHOL    R2 8242   4.743   6.058   6.226  0.2466 -0.0567  0.0930
  913CHOL    R3 8243   4.551   5.869   6.270 -0.0097  0.1843  0.0368
  913CHOL    R4 8244   4.681   5.905   6.530  0.2463 -0.2828 -0.0183
  913CHOL    R5 8245   4.652   5.717   6.424 -0.1204 -0.1346 -0.1964
  913CHOL    C1 8246   4.466   5.640   6.748  0.0055 -0.1882 -0.1359
  913CHOL    C2 8247   4.693   5.331   6.802 -0.0536 -0.2547  0.2963
  914CHOL   ROH 8248   3.550  12.624   6.767 -0.1019 -0.0846 -0.0943
  914CHOL    R1 8249   3.525  12.342   6.784 -0.0305 -0.0893 -0.0469
  914CHOL    R2 8250   3.435  12.215   7.012  0.0573 -0.0810 -0.0012
  914CHOL    R3 8251   3.256  12.104   6.840  0.0394 -0.1422  0.0583
  914CHOL    R4 8252   3.255  11.926   7.074  0.1356 -0.1137  0.0707
  914CHOL    R5 8253   3.288  11.868   6.866  0.0952 -0.1292  0.0742
  914CHOL    C1 8254   2.983  11.653   6.949  0.1644 -0.1900  0.1685
  914CHOL    C2 8255   2.794  11.385   6.788 -0.4065  0.0867 -0.1625
  915XCA    COO 8256  11.724   3.662   8.970  0.0548 -0.0725 -0.0892
  915XCA     C1 8257  11.797   3.449   8.530  0.1230  0.2890 -0.0184
  915XCA     C2 8258  11.691   3.155   8.148 -0.1826  0.2865  0.0972
  915XCA     C3 8259  11.341   3.100   7.846  0.2253 -0.0188  0.0303
  915XCA     C4 8260  11.041   2.953   7.532 -0.1505  0.0955 -0.0963
  915XCA     C5 8261  11.153   2.667   7.248  0.0863 -0.0871 -0.1645
  915XCA     C6 8262  11.516   2.345   7.168 -0.0567 -0.1954  0.0279
  916PNCE   AM1 8263   8.435   3.789   4.500  0.2053  0.3044  0.0667
  916PNCE   AM2 8264   8.654   3.942   4.700 -0.0756 -0.0173  0.2158
  916PNCE   T1A 8265   8.325   3.677   4.947  0.1877  0.0643 -0.0530
  916PNCE   C2A 8266   8.192   3.460   5.297 -0.2752 -0.3957 -0.3233
  916PNCE   C3A 8267   7.926   3.289   5.644 -0.1902  0.2391 -0.0229
  916PNCE   C1B 8268   8.490   4.286   5.114  0.1470  0.1204  0.1009
  916PNCE   C2B 8269   8.258   4.425   5.369  0.1248 -0.3814 -0.2746
  916PNCE   C3B 8270   8.078   4.574   5.641 -0.3570  0.0676 -0.2859
  916PNCE   D4B 8271   8.211   4.855   5.982  0.1476 -0.2181  0.0190
  916PNCE   C5B 8272   8.662   4.761   5.993  0.0921  0.2381  0.0135
  916PNCE   C6B 8273   9.012   4.829   6.202  0.3221 -0.1805  0.0324
  917CHOL   ROH 8274  12.241  13.652   8.283  0.2619  0.0237  0.0135
  917CHOL    R1 8275  12.154  13.794   8.054  0.1604 -0.0714 -0.0075
  917CHOL    R2 8276  12.330  13.911   7.877  0.0790 -0.0602 -0.0799
  917CHOL    R3 8277  12.194  13.763   7.694  0.0889 -0.1592 -0.0085
  917CHOL    R4 8278  12.398  13.905   7.538 -0.0503 -0.0621 -0.1068
  917CHOL    R5 8279  12.184  13.904   7.500 -0.0662 -0.1872 -0.0224
  917CHOL    C1 8280  12.311  13.763   7.169 -0.1162 -0.1562 -0.0553
  917CHOL    C2 8281  12.318  13.997   6.818 -0.0865 -0.1089 -0.4231
  918CHOL   ROH 8282   1.874   0.712   6.644 -0.1752  0.0614  0.2368
  918CHOL    R1 8283   1.828   0.748   6.367 -0.3369  0.0127  0.2559
  918CHOL    R2 8284   2.023   0.700   6.177 -0.3303  0.3228  0.1792
  918CHOL    R3 8285   1.831   0.540   6.069 -0.1302  0.0343  0.2406
  918CHOL    R4 8286   2.001   0.614   5.843 -0.4054  0.4434  0.1530
  918CHOL    R5 8287   1.785   0.637   5.856 -0.4466  0.0608  0.3145
  918CHOL    C1 8288   1.809   0.415   5.547 -0.2613  0.2427  0.1953
  918CHOL    C2 8289   1.735   0.376   5.203  0.0569  0.2120  0.1079
  919CHOL   ROH 8290  11.604   4.596   3.977  0.0522 -0.0523  0.1009
  919CHOL    R1 8291  11.552   4.816   4.147  0.0622  0.0262  0.0028
  919CHOL    R2 8292  11.355   4.811   4.341  0.0659  0.1199  0.0074
  919CHOL    R3 8293  11.560   4.881   4.505  0.0696  0.1883 -0.0256
  919CHOL    R4 8294  11.319   4.973   4.644  0.0587  0.1183  0.0077
  919CHOL    R5 8295  11.494   5.093   4.595  0.0160  0.1720 -0.0230
  919CHOL    C1 8296  11.490   5.134   4.974  0.0581  0.1814 -0.0232
  919CHOL    C2 8297  11.442   5.458   5.179  0.1152  0.0543 -0.0302
  920CHOL   ROH 8298  10.283  11.359   5.178 -0.0947  0.0473 -0.0906
  920CHOL    R1 8299  10.394  11.179   5.365  0.1453  0.1534 -0.1294
  920CHOL    R2 8300  10.547  11.264   5.579 -0.1064  0.3287 -0.0210
  920CHOL    R3 8301  10.366  11.120   5.724  0.0841 -0.0756 -0.1693
  920CHOL    R4 8302  10.558  11.220   5.922 -0.4436  0.6290  0.0357
  920CHOL    R5 8303  10.498  11.012   5.892  0.1756  0.4162  0.0961
  920CHOL    C1 8304  10.396  11.060   6.257 -0.4610  0.4245 -0.0706
  920CHOL    C2 8305  10.593  10.998   6.565  0.0710  0.0387  0.0810
  921PNCE   AM1 8306  13.230  10.991   4.549 -0.1734 -0.1813  0.0573
  921PNCE   AM2 8307  13.001  10.854   4.633  0.1366 -0.0012 -0.1521
  921PNCE   T1A 8308  13.050  11.262   4.971  0.2574 -0.0834  0.1922
  921PNCE   C2A 8309  13.162  11.239   5.502 -0.2185  0.1415 -0.2335
  921PNCE   C3A 8310  13.174  11.090   5.919  0.0804  0.0571 -0.0518
  921PNCE   C1B 8311  13.095  10.662   4.996 -0.0180 -0.0224  0.0409
  921PNCE   C2B 8312  13.073  10.449   5.432  0.1495 -0.3013 -0.0671
  921PNCE   C3B 8313  13.216  10.393   5.776 -0.0068 -0.0944  0.1350
  921PNCE   D4B 8314  13.366  10.270   6.014 -0.1129  0.3033  0.1506
  921PNCE   C5B 8315  13.651   9.963   6.060 -0.3423 -0.0515 -0.0357
  921PNCE   C6B 8316  13.810   9.840   6.464  0.1280 -0.1335  0.0300
  922CHOL   ROH 8317   1.009   1.797   8.778 -0.1965  0.0745  0.0755
  922CHOL    R1 8318   1.219   1.904   8.622 -0.0859 -0.1449  0.0707
  922CHOL    R2 8319   1.267   1.824   8.362 -0.3039 -0.0512 -0.0000
  922CHOL    R3 8320   1.249   2.091   8.311  0.0853  0.0156  0.1815
  922CHOL    R4 8321   1.412   1.984   8.092 -0.2899 -0.1255 -0.0366
  922CHOL    R5 8322   1.465   2.149   8.224  0.1065 -0.2864  0.0193
  922CHOL    C1 8323   1.480   2.327   7.887  0.0837 -0.1060  0.1125
  922CHOL    C2 8324   1.395   2.345   7.554  0.2837  0.0487  0.4247
  923PNCE   AM1 8325  15.378   0.583   8.461  0.1235  0.0688 -0.2398
  923PNCE   AM2 8326  15.455   0.425   8.839  0.0096  0.3027  0.2139
  923PNCE   T1A 8327  15.537   0.383   8.027 -0.0870  0.1411 -0.3684
  923PNCE   C2A 8328  15.685   0.353   7.671  0.0030  0.1943  0.0439
  923PNCE   C3A 8329  15.600   0.286   7.301 -0.1961  0.1514 -0.0591
  923PNCE   C1B 8330  15.529   0.034   8.534 -0.0450  0.1066 -0.1522
  923PNCE   C2B 8331  15.739  -0.092   8.101  0.0278  0.0470 -0.0195
  923PNCE   C3B 8332  15.751  -0.167   7.643  0.0097 -0.1926  0.0242
  923PNCE   D4B 8333  15.774  -0.200   7.177 -0.0175  0.2464  0.0224
  923PNCE   C5B 8334  15.633  -0.500   6.922  0.1597  0.0408 -0.0114
  923PNCE   C6B 8335  15.219  -0.617   6.974 -0.0382  0.2450 -0.2848
  924PNCE   AM1 8336   6.171   1.601   4.592  0.0437 -0.1060 -0.0940
  924PNCE   AM2 8337   5.945   1.780   4.739  0.0214  0.2460 -0.0257
  924PNCE   T1A 8338   6.210   1.286   5.029  0.0233 -0.2865 -0.1288
  924PNCE   C2A 8339   6.292   1.326   5.504 -0.1742 -0.1151  0.1338
  924PNCE   C3A 8340   6.429   1.262   5.922  0.0750 -0.0847 -0.1110
  924PNCE   C1B 8341   6.031   1.681   5.251  0.1258 -0.1653  0.2476
  924PNCE   C2B 8342   6.029   2.048   5.565  0.1195 -0.0470 -0.1668
  924PNCE   C3B 8343   5.676   2.180   5.747 -0.1296 -0.0715 -0.0393
  924PNCE   D4B 8344   5.296   2.335   6.005 -0.0814 -0.0338 -0.1406
  924PNCE   C5B 8345   5.315   2.046   6.447  0.1638 -0.3428  0.2374
  924PNCE   C6B 8346   5.578   1.972   6.820 -0.2569  0.0797  0.0028
  925CHOL   ROH 8347  13.624  11.599   4.899  0.1058  0.0047  0.0211
  925CHOL    R1 8348  13.715  11.583   5.166  0.2327 -0.1282 -0.0289
  925CHOL    R2 8349  13.542  11.575   5.382  0.3370  0.1315  0.0669
  925CHOL    R3 8350  13.681  11.349   5.444  0.0384 -0.0794 -0.0097
  925CHOL    R4 8351  13.573  11.443   5.700  0.1172 -0.0504  0.0154
  925CHOL    R5 8352  13.782  11.397   5.655  0.0702 -0.3013  0.0290
  925CHOL    C1 8353  13.721  11.154   5.943 -0.2913 -0.3543 -0.0866
  925CHOL    C2 8354  14.015  11.104   6.283  0.0948 -0.1776  0.1677
  926CHOL   ROH 8355   9.546   4.867   7.789  0.0546  0.1160 -0.0327
  926CHOL    R1 8356   9.519   4.675   7.583  0.1112  0.1154 -0.0380
  926CHOL    R2 8357   9.280   4.633   7.449  0.0407 -0.1686  0.1804
  926CHOL    R3 8358   9.433   4.678   7.229 -0.2226  0.0638  0.0364
  926CHOL    R4 8359   9.259   4.454   7.154  0.0318 -0.2147  0.2079
  926CHOL    R5 8360   9.477   4.459   7.141  0.0267  0.1153  0.0086
  926CHOL    C1 8361   9.390   4.393   6.776 -0.2206 -0.0235  0.0885
  926CHOL    C2 8362   9.394   4.370   6.403  0.1881 -0.0750 -0.1036
  927PNCE   AM1 8363   9.947  13.899   4.659  0.2780  0.1516 -0.0873
  927PNCE   AM2 8364   9.696  13.857   4.436  0.0144  0.3119 -0.0431
  927PNCE   T1A 8365   9.888  13.639   4.936  0.0355 -0.0650 -0.2104
  927PNCE   C2A 8366  10.002  13.559   5.284  0.3112  0.0034 -0.4109
  927PNCE   C3A 8367  10.239  13.759   5.570 -0.2093 -0.0911 -0.3127
  927PNCE   C1B 8368   9.419  13.767   4.861  0.1650 -0.0538  0.0499
  927PNCE   C2B 8369   9.328  13.448   5.048  0.3447  0.1925 -0.1767
  927PNCE   C3B 8370   9.477  13.398   5.377 -0.1562 -0.3564 -0.2833
  927PNCE   D4B 8371   9.756  13.642   5.699 -0.1278 -0.1746 -0.1688
  927PNCE   C5B 8372  10.091  13.383   5.806 -0.0311  0.0312  0.1732
  927PNCE   C6B 8373  10.250  13.198   6.159 -0.1372  0.0140  0.0120
  928CHOL   ROH 8374   5.185   2.473   8.762  0.1475  0.2043 -0.0852
  928CHOL    R1 8375   5.160   2.494   8.481  0.0074  0.0748 -0.0833
  928CHOL    R2 8376   4.921   2.557   8.357 -0.0035  0.2374  0.0213
  928CHOL    R3 8377   5.069   2.753   8.242  0.1216  0.0335 -0.1733
  928CHOL    R4 8378   4.856   2.697   8.048 -0.1613  0.2494  0.0589
  928CHOL    R5 8379   5.071   2.698   8.009 -0.1939 -0.0225 -0.1685
  928CHOL    C1 8380   4.958   2.964   7.760 -0.1357  0.0651 -0.1020
  928CHOL    C2 8381   5.056   3.177   7.398 -0.0906 -0.2737  0.0403
  929CHOL   ROH 8382  13.800  12.802   8.273 -0.1873 -0.1276 -0.0340
  929CHOL    R1 8383  13.711  12.665   8.042 -0.0260 -0.0483 -0.1456
  929CHOL    R2 8384  13.814  12.715   7.790  0.1425  0.0483 -0.0612
  929CHOL    R3 8385  13.858  12.447   7.790  0.1547  0.0504 -0.1263
  929CHOL    R4 8386  13.915  12.531   7.516  0.0812  0.1041 -0.1215
  929CHOL    R5 8387  13.779  12.373   7.577  0.1052  0.0875 -0.1190
  929CHOL    C1 8388  14.017  12.173   7.356  0.0570  0.1386 -0.2177
  929CHOL    C2 8389  13.808  12.062   6.996  0.0622 -0.0194 -0.4212
  930CHOL   ROH 8390   1.103   9.650   4.824 -0.2286  0.1435  0.2484
  930CHOL    R1 8391   1.087   9.668   5.106 -0.1003  0.0946  0.2603
  930CHOL    R2 8392   1.257   9.530   5.274 -0.0194  0.0678  0.1610
  930CHOL    R3 8393   1.303   9.777   5.378  0.0229  0.0514  0.1795
  930CHOL    R4 8394   1.429   9.592   5.567 -0.0834  0.0125  0.2099
  930CHOL    R5 8395   1.283   9.747   5.615 -0.0511  0.0525  0.1725
  930CHOL    C1 8396   1.573   9.859   5.835 -0.0809 -0.0351  0.2558
  930CHOL    C2 8397   1.627   9.968   6.253 -0.0514 -0.0301 -0.2078
  931CHOL   ROH 8398   8.434  12.755   8.226  0.0418  0.0269  0.1058
  931CHOL    R1 8399   8.296  12.805   7.984 -0.1896 -0.0590  0.2187
  931CHOL    R2 8400   8.402  12.742   7.737 -0.1666  0.3877  0.1143
  931CHOL    R3 8401   8.168  12.607   7.707  0.1027 -0.1027  0.1085
  931CHOL    R4 8402   8.270  12.641   7.434 -0.1753  0.5643  0.0570
  931CHOL    R5 8403   8.072  12.698   7.507 -0.2643  0.0108  0.3193
  931CHOL    C1 8404   7.974  12.455   7.229  0.0725  0.2067  0.0182
  931CHOL    C2 8405   7.904  12.665   6.833  0.0973 -0.1166  0.0659
  932XCA    COO 8406   6.802  12.106   4.901  0.0638  0.3829  0.0612
  932XCA     C1 8407   6.620  12.193   5.404  0.2072 -0.0391 -0.0199
  932XCA     C2 8408   6.492  12.285   5.793 -0.0020 -0.2751 -0.1731
  932XCA     C3 8409   6.351  12.132   6.067 -0.0523 -0.3005  0.2136
  932XCA     C4 8410   5.976  11.950   6.226  0.0437 -0.1656 -0.1595
  932XCA     C5 8411   5.697  11.778   6.573 -0.3385 -0.0763  0.2336
  932XCA     C6 8412   5.698  11.650   6.919  0.0139 -0.2438  0.1327
  933XCA    COO 8413  13.962  11.352   4.653  0.3342  0.3624  0.1531
  933XCA     C1 8414  13.983  11.195   5.105  0.1064 -0.1667 -0.1525
  933XCA     C2 8415  14.034  10.974   5.500 -0.2636 -0.3317 -0.1813
  933XCA     C3 8416  14.012  10.800   5.807  0.0545 -0.1724 -0.0123
  933XCA     C4 8417  14.314  10.759   6.165 -0.0952  0.0175  0.2024
  933XCA     C5 8418  14.832  10.710   6.199 -0.1042  0.2167  0.0669
  933XCA     C6 8419  15.150  10.728   6.553 -0.3760  0.3575 -0.1092
  934CHOL   ROH 8420   8.904  10.825   8.506 -0.1578 -0.0852 -0.1867
  934CHOL    R1 8421   8.993  10.985   8.290  0.1211 -0.0768 -0.0716
  934CHOL    R2 8422   9.250  10.971   8.191  0.1097 -0.4507 -0.0788
  934CHOL    R3 8423   9.122  10.928   7.955  0.0253 -0.0651 -0.1091
  934CHOL    R4 8424   9.398  10.987   7.879  0.1194 -0.4728 -0.0745
  934CHOL    R5 8425   9.219  11.086   7.804  0.2816 -0.1179  0.0018
  934CHOL    C1 8426   9.364  10.956   7.476  0.0457 -0.1236 -0.1005
  934CHOL    C2 8427   9.205  11.113   7.220  0.2689  0.0520  0.1269
  935PNCE   AM1 8428  14.464  13.836   9.022  0.2075 -0.1535  0.0128
  935PNCE   AM2 8429  14.154  13.723   8.793 -0.0870  0.1343  0.0727
  935PNCE   T1A 8430  14.810  14.011   8.886 -0.3520 -0.3401  0.0627
  935PNCE   C2A 8431  15.202  13.793   8.609 -0.0829 -0.0165 -0.1974
  935PNCE   C3A 8432  15.347  13.373   8.603  0.1298  0.0577  0.1614
  935PNCE   C1B 8433  14.224  13.928   8.316 -0.2046  0.1094 -0.2396
  935PNCE   C2B 8434  14.489  13.855   7.924 -0.1537  0.1320 -0.1982
  935PNCE   C3B 8435  14.831  13.544   7.659 -0.0280  0.1682  0.2514
  935PNCE   D4B 8436  14.981  13.611   7.238  0.3410  0.3519 -0.2693
  935PNCE   C5B 8437  15.097  13.937   7.033  0.0091  0.0804  0.0062
  935PNCE   C6B 8438  15.383  14.258   6.855  0.1577  0.3892 -0.0156
  936CHOL   ROH 8439   6.126   7.420   7.888  0.0285  0.0123  0.0331
  936CHOL    R1 8440   6.031   7.440   7.622 -0.0096  0.0884  0.0523
  936CHOL    R2 8441   5.838   7.622   7.546  0.0537  0.1785  0.1116
  936CHOL    R3 8442   6.025   7.694   7.362  0.0504  0.1270  0.0875
  936CHOL    R4 8443   5.770   7.710   7.218  0.0300  0.2000  0.1223
  936CHOL    R5 8444   5.947   7.599   7.157 -0.0074  0.1487  0.0970
  936CHOL    C1 8445   5.905   7.829   6.855  0.0131  0.1641  0.1058
  936CHOL    C2 8446   5.620   7.674   6.591  0.1678  0.3173 -0.1277
  937PNCE   AM1 8447  14.083   7.031   4.095  0.2540  0.0660 -0.1816
  937PNCE   AM2 8448  13.831   7.147   4.063 -0.2025 -0.0321 -0.1612
  937PNCE   T1A 8449  14.245   6.722   4.285  0.0630 -0.0992 -0.0041
  937PNCE   C2A 8450  14.346   6.499   4.667 -0.0946  0.0207 -0.1009
  937PNCE   C3A 8451  14.619   6.632   5.074  0.0050 -0.1285  0.0304
  937PNCE   C1B 8452  13.770   6.998   4.517 -0.0380 -0.0772  0.1657
  937PNCE   C2B 8453  13.748   7.053   4.950  0.0386 -0.1053 -0.0538
  937PNCE   C3B 8454  13.448   7.268   5.335  0.2204 -0.1016  0.2203
  937PNCE   D4B 8455  13.406   7.020   5.792 -0.1635 -0.0585 -0.1301
  937PNCE   C5B 8456  12.977   7.012   5.888 -0.2646 -0.1945  0.3189
  937PNCE   C6B 8457  12.678   6.935   5.970  0.0813 -0.3249  0.2955
  938XCA    COO 8458  10.026   3.161   5.086 -0.1434 -0.2696  0.4019
  938XCA     C1 8459  10.363   3.435   5.210  0.2048 -0.2410  0.0062
  938XCA     C2 8460  10.339   3.876   5.429  0.1350 -0.0854  0.1208
  938XCA     C3 8461  10.480   4.230   5.705 -0.1171  0.0040  0.0275
  938XCA     C4 8462  10.616   4.622   5.892  0.0548  0.1036 -0.1694
  938XCA     C5 8463  10.844   4.982   5.936 -0.4618  0.2781  0.1650
  938XCA     C6 8464  11.239   5.003   6.147 -0.0540  0.0486 -0.1769
  939CHOL   ROH 8465  13.748  15.050   8.833  0.0131  0.0104  0.0184
  939CHOL    R1 8466  13.725  15.284   8.674  0.0238  0.0715  0.1052
  939CHOL    R2 8467  13.929  15.373   8.511 -0.0267  0.0362  0.0179
  939CHOL    R3 8468  13.736  15.364   8.320 -0.1400  0.1770  0.1238
  939CHOL    R4 8469  13.961  15.505   8.193 -0.0533 -0.1180 -0.0491
  939CHOL    R5 8470  13.755  15.575   8.207  0.0316  0.1144  0.0357
  939CHOL    C1 8471  13.798  15.573   7.828 -0.1752 -0.0755  0.0113
  939CHOL    C2 8472  13.768  15.910   7.651  0.3111 -0.0182 -0.0041
  940CHOL   ROH 8473   4.914   3.003   5.397 -0.2657  0.1187 -0.2168
  940CHOL    R1 8474   4.854   3.198   5.593 -0.3088 -0.1108  0.0044
  940CHOL    R2 8475   4.892   3.153   5.863  0.0816 -0.2669 -0.0642
  940CHOL    R3 8476   5.038   3.382   5.848 -0.2559 -0.0461 -0.0815
  940CHOL    R4 8477   4.991   3.344   6.134  0.0830 -0.2797 -0.0567
  940CHOL    R5 8478   4.947   3.523   6.018 -0.2872 -0.2721  0.0890
  940CHOL    C1 8479   5.186   3.669   6.277 -0.2331 -0.0798 -0.0686
  940CHOL    C2 8480   5.558   3.677   6.503  0.1717  0.0314 -0.1054
  941CHOL   ROH 8481   3.331   0.395   4.643  0.2475  0.1022 -0.0855
  941CHOL    R1 8482   3.281   0.551   4.874  0.2001  0.1259 -0.1114
  941CHOL    R2 8483   3.204   0.440   5.114  0.0393  0.1606 -0.1459
  941CHOL    R3 8484   3.418   0.577   5.210  0.0500  0.0746 -0.0456
  941CHOL    R4 8485   3.310   0.435   5.443 -0.2223  0.2557 -0.0573
  941CHOL    R5 8486   3.350   0.649   5.428 -0.0784  0.2247 -0.1333
  941CHOL    C1 8487   3.574   0.560   5.724 -0.3645  0.2305  0.0885
  941CHOL    C2 8488   3.778   0.623   6.096  0.1379  0.1651 -0.0549
  942PNCE   AM1 8489  15.403   1.251   4.374  0.0890 -0.0639  0.1355
  942PNCE   AM2 8490  15.204   1.525   4.512 -0.5360  0.1855  0.1441
  942PNCE   T1A 8491  15.027   1.038   4.729 -0.3044  0.0364  0.0759
  942PNCE   C2A 8492  14.910   0.834   5.181 -0.2102  0.0345 -0.1745
  942PNCE   C3A 8493  14.932   0.743   5.707  0.3292  0.0520  0.0238
  942PNCE   C1B 8494  15.222   1.427   4.992 -0.1246 -0.1976 -0.1641
  942PNCE   C2B 8495  15.142   1.293   5.353 -0.1464  0.0551 -0.0717
  942PNCE   C3B 8496  14.947   1.276   5.711  0.2157 -0.0822  0.0554
  942PNCE   D4B 8497  14.598   1.490   5.965  0.2490 -0.2292 -0.3124
  942PNCE   C5B 8498  14.705   1.478   6.408 -0.1199  0.3212 -0.1475
  942PNCE   C6B 8499  14.962   1.317   6.683 -0.1041  0.1805 -0.1263
  943PNCE   AM1 8500  12.250  14.132   4.886  0.1459 -0.1056  0.1136
  943PNCE   AM2 8501  12.340  13.887   5.058 -0.2011 -0.1095 -0.1311
  943PNCE   T1A 8502  12.137  14.297   5.382  0.1384  0.2216  0.0619
  943PNCE   C2A 8503  12.050  14.222   5.809 -0.2452 -0.1187  0.1392
  943PNCE   C3A 8504  11.928  14.290   6.233 -0.0169 -0.1279  0.0070
  943PNCE   C1B 8505  11.930  13.884   5.294 -0.4087  0.2743  0.0760
  943PNCE   C2B 8506  11.875  13.648   5.708 -0.1315 -0.0892 -0.1952
  943PNCE   C3B 8507  11.943  13.713   6.087  0.3215  0.0107 -0.1974
  943PNCE   D4B 8508  11.909  13.863   6.445  0.0268  0.0339 -0.2074
  943PNCE   C5B 8509  11.866  13.679   6.890  0.2244  0.0210  0.3035
  943PNCE   C6B 8510  11.803  13.931   7.227 -0.3548 -0.1038  0.0794
  944PNCE   AM1 8511   9.848  10.459   4.679 -0.0581 -0.2373 -0.3677
  944PNCE   AM2 8512  10.101  10.481   4.357 -0.1856 -0.3582 -0.1033
  944PNCE   T1A 8513   9.897  10.668   5.129 -0.2610  0.1507  0.0069
  944PNCE   C2A 8514  10.000  10.705   5.595 -0.1417 -0.0391 -0.2152
  944PNCE   C3A 8515  10.252  10.643   5.910 -0.0456  0.0120  0.1637
  944PNCE   C1B 8516  10.364  10.206   4.567 -0.0698 -0.1139  0.0948
  944PNCE   C2B 8517  10.482   9.735   4.746 -0.2669 -0.0297 -0.2624
  944PNCE   C3B 8518  10.428   9.773   5.222  0.2288  0.2449  0.0280
  944PNCE   D4B 8519  10.504   9.758   5.708 -0.0944 -0.1880  0.1329
  944PNCE   C5B 8520  10.292   9.444   5.983 -0.2465 -0.0169  0.1304
  944PNCE   C6B 8521  10.231   9.013   6.067  0.0895 -0.0995  0.1153
  945CHOL   ROH 8522  15.351  10.197   8.193  0.0532 -0.0727 -0.0635
  945CHOL    R1 8523  15.381  10.178   7.912 -0.0305 -0.0140 -0.0764
  945CHOL    R2 8524  15.324  10.387   7.741  0.0087  0.0516 -0.0059
  945CHOL    R3 8525  15.578  10.344   7.655 -0.0317 -0.0298 -0.0884
  945CHOL    R4 8526  15.420  10.372   7.409 -0.1144 -0.0335 -0.0391
  945CHOL    R5 8527  15.552  10.207   7.460 -0.1379 -0.0600 -0.0556
  945CHOL    C1 8528  15.714  10.324   7.135 -0.2240 -0.1593 -0.1359
  945CHOL    C2 8529  15.575  10.083   6.838 -0.3442  0.0803 -0.1586
  946CHOL   ROH 8530  10.205   7.543   4.402 -0.0214  0.0406  0.0137
  946CHOL    R1 8531  10.389   7.689   4.559  0.0915 -0.0510 -0.0319
  946CHOL    R2 8532  10.309   7.884   4.739  0.2397  0.0607 -0.0870
  946CHOL    R3 8533  10.454   7.735   4.914  0.1325  0.0027 -0.0459
  946CHOL    R4 8534  10.379   7.975   5.065  0.1294  0.0052 -0.0472
  946CHOL    R5 8535  10.580   7.896   5.039  0.1223 -0.0418  0.0246
  946CHOL    C1 8536  10.556   7.889   5.420 -0.0356 -0.0815  0.0145
  946CHOL    C2 8537  10.789   8.180   5.569  0.0900 -0.1129  0.1003
  947XCA    COO 8538   4.635  11.650   4.179 -0.2039 -0.1670  0.1668
  947XCA     C1 8539   4.302  11.690   4.559  0.0508 -0.3204  0.1462
  947XCA     C2 8540   4.235  11.896   4.850  0.1723 -0.1383 -0.2054
  947XCA     C3 8541   4.451  12.174   5.034  0.2051  0.1101 -0.1271
  947XCA     C4 8542   4.396  12.444   5.375  0.3241  0.0402 -0.1515
  947XCA     C5 8543   4.037  12.560   5.735 -0.0532  0.3685 -0.0981
  947XCA     C6 8544   3.739  12.574   5.936 -0.3026 -0.0752  0.1504
  948PNCE   AM1 8545   4.958   0.355   4.799  0.0295 -0.2148 -0.2803
  948PNCE   AM2 8546   4.707   0.373   5.020  0.4944 -0.1365 -0.4416
  948PNCE   T1A 8547   5.328   0.506   5.110  0.1190 -0.2595  0.0127
  948PNCE   C2A 8548   5.542   0.466   5.545 -0.0797  0.0807  0.0544
  948PNCE   C3A 8549   5.927   0.570   6.008 -0.1693 -0.1120 -0.0789
  948PNCE   C1B 8550   4.875   0.595   5.374 -0.0650  0.1295 -0.1120
  948PNCE   C2B 8551   5.155   0.764   5.679  0.0566  0.1650 -0.2208
  948PNCE   C3B 8552   5.504   0.899   6.001 -0.0970 -0.1996 -0.3267
  948PNCE   D4B 8553   5.713   0.872   6.423  0.2072 -0.1996 -0.0289
  948PNCE   C5B 8554   5.365   1.051   6.657 -0.0697 -0.1578 -0.1963
  948PNCE   C6B 8555   5.183   0.879   7.077  0.0912 -0.2787 -0.2912
  949XCA    COO 8556   6.886   8.689   8.337  0.0294 -0.0718  0.4092
  949XCA     C1 8557   6.637   8.540   7.982 -0.0394 -0.2796 -0.5612
  949XCA     C2 8558   6.615   8.800   7.595  0.1994 -0.0193 -0.2779
  949XCA     C3 8559   6.621   9.123   7.341 -0.4406 -0.3560 -0.1466
  949XCA     C4 8560   6.815   9.607   7.459 -0.1772 -0.1866 -0.0708
  949XCA     C5 8561   7.130   9.954   7.631 -0.0564  0.1924 -0.0691
  949XCA     C6 8562   7.325  10.355   7.596 -0.1044 -0.0071 -0.2249
  950CHOL   ROH 8563   8.942   5.392   7.719 -0.0894  0.0248 -0.0330
  950CHOL    R1 8564   8.865   5.458   7.455 -0.0545 -0.1366 -0.0834
  950CHOL    R2 8565   8.706   5.293   7.301 -0.2318 -0.1213  0.0875
  950CHOL    R3 8566   8.552   5.516   7.278 -0.0203  0.0110 -0.0999
  950CHOL    R4 8567   8.525   5.380   7.020 -0.2587 -0.2672  0.0575
  950CHOL    R5 8568   8.584   5.587   7.051 -0.0362 -0.2803 -0.2020
  950CHOL    C1 8569   8.275   5.640   6.834 -0.0758 -0.2281 -0.1359
  950CHOL    C2 8570   8.237   5.399   6.580 -0.0863 -0.3740 -0.1412
  951CHOL   ROH 8571   9.797  15.052   5.721  0.0123 -0.1025 -0.1408
  951CHOL    R1 8572   9.636  15.075   5.952  0.0304 -0.2573 -0.1118
  951CHOL    R2 8573   9.717  14.983   6.200  0.1878 -0.1299 -0.1131
  951CHOL    R3 8574   9.660  15.237   6.277 -0.0919 -0.1817 -0.1406
  951CHOL    R4 8575   9.780  15.113   6.514  0.4157  0.0886 -0.2457
  951CHOL    R5 8576   9.588  15.216   6.504  0.2432 -0.2032 -0.0326
  951CHOL    C1 8577   9.763  15.428   6.769  0.2857  0.1674 -0.3486
  951CHOL    C2 8578   9.677  15.117   7.024  0.0119 -0.0838  0.0794
  952XCA    COO 8579  14.841  11.397   4.635  0.0591  0.1352  0.0156
  952XCA     C1 8580  15.068  11.647   4.959 -0.2601  0.1276  0.1554
  952XCA     C2 8581  15.111  11.733   5.347  0.1461  0.2407 -0.0989
  952XCA     C3 8582  15.202  11.624   5.811  0.1076  0.4391  0.1480
  952XCA     C4 8583  15.478  11.659   6.035 -0.1285 -0.0429 -0.0050
  952XCA     C5 8584  15.287  11.636   6.380  0.2317 -0.0930 -0.0742
  952XCA     C6 8585  15.508  11.764   6.720  0.3228 -0.5535  0.0511
  953CHOL   ROH 8586   7.166   3.581   8.162 -0.2109  0.1085  0.0147
  953CHOL    R1 8587   7.097   3.533   7.891 -0.1179  0.0831 -0.0045
  953CHOL    R2 8588   7.238   3.358   7.731 -0.0299  0.1076  0.0451
  953CHOL    R3 8589   6.993   3.248   7.692  0.0054  0.0523 -0.0254
  953CHOL    R4 8590   7.168   3.108   7.502  0.0733  0.1370 -0.0198
  953CHOL    R5 8591   6.981   3.211   7.455  0.0577  0.0980 -0.0340
  953CHOL    C1 8592   6.898   2.860   7.332  0.1665  0.1022 -0.1238
  953CHOL    C2 8593   7.094   2.498   7.218  0.1283 -0.2886 -0.0566
  954PNCE   AM1 8594  10.967   0.456   5.274  0.2688 -0.1069  0.1341
  954PNCE   AM2 8595  11.383   0.423   5.237 -0.1462  0.0575  0.1135
  954PNCE   T1A 8596  11.068   0.115   5.530  0.2507  0.1302  0.0670
  954PNCE   C2A 8597  11.225  -0.086   5.839  0.0447 -0.1915  0.0922
  954PNCE   C3A 8598  11.661  -0.077   5.795 -0.2323 -0.0229 -0.1051
  954PNCE   C1B 8599  11.517   0.390   5.588 -0.0067 -0.1629 -0.2252
  954PNCE   C2B 8600  11.474   0.325   6.051 -0.0861 -0.0345 -0.0476
  954PNCE   C3B 8601  11.471   0.532   6.535  0.0887 -0.2064 -0.1188
  954PNCE   D4B 8602  11.298   0.270   6.792  0.1284 -0.0485  0.1063
  954PNCE   C5B 8603  10.996   0.422   7.002  0.0945  0.2169 -0.2321
  954PNCE   C6B 8604  10.636   0.431   7.155  0.4793  0.3918  0.2374
  955XCA    COO 8605   0.621   0.686   8.598 -0.0934 -0.1828  0.1917
  955XCA     C1 8606   0.583   0.806   8.158 -0.4068  0.0752  0.0727
  955XCA     C2 8607   0.802   1.000   7.904 -0.1083  0.1427 -0.1421
  955XCA     C3 8608   0.806   1.404   7.781  0.0268 -0.3798  0.2153
  955XCA     C4 8609   0.446   1.710   7.782  0.2312 -0.1087  0.5764
  955XCA     C5 8610   0.068   1.890   7.538 -0.2297 -0.2232  0.1372
  955XCA     C6 8611  -0.294   2.067   7.574  0.2217 -0.0058 -0.1489
  956PNCE   AM1 8612   9.223  11.750   5.130 -0.2387  0.0350  0.1279
  956PNCE   AM2 8613   9.380  11.953   4.871  0.0532  0.2888  0.2497
  956PNCE   T1A 8614   9.174  12.025   5.399 -0.1091  0.3951  0.2514
  956PNCE   C2A 8615   9.256  12.129   5.838 -0.2254 -0.0880  0.1663
  956PNCE   C3A 8616   9.129  12.255   6.224  0.0622  0.0137 -0.1229
  956PNCE   C1B 8617   9.719  12.117   5.093  0.0154  0.0660 -0.0438
  956PNCE   C2B 8618  10.045  12.150   5.319  0.3330 -0.2933 -0.0174
  956PNCE   C3B 8619  10.143  12.108   5.853 -0.1647 -0.0019  0.0081
  956PNCE   D4B 8620  10.225  12.045   6.194 -0.0502  0.0887 -0.0337
  956PNCE   C5B 8621  10.443  12.039   6.559  0.1607 -0.1092 -0.0512
  956PNCE   C6B 8622  10.664  11.754   6.958 -0.1084  0.0026 -0.0888
  957CHOL   ROH 8623   7.221   5.587   4.595 -0.1539 -0.1620  0.1391
  957CHOL    R1 8624   7.156   5.747   4.819 -0.2180 -0.0522  0.0441
  957CHOL    R2 8625   6.986   5.661   5.019 -0.1874 -0.0009  0.0970
  957CHOL    R3 8626   7.196   5.724   5.180 -0.2099  0.1765  0.0580
  957CHOL    R4 8627   6.971   5.684   5.364 -0.1273 -0.0484  0.1027
  957CHOL    R5 8628   7.100   5.859   5.353 -0.2928  0.0698  0.0926
  957CHOL    C1 8629   7.160   5.757   5.716 -0.1133  0.0903  0.0693
  957CHOL    C2 8630   7.238   5.958   6.069 -0.1608  0.0781 -0.2217
  958PNCE   AM1 8631   8.621  13.657   4.389 -0.0432  0.2238 -0.1299
  958PNCE   AM2 8632   8.418  13.511   4.643  0.1178  0.0251  0.1875
  958PNCE   T1A 8633   9.026  13.652   4.534 -0.0985 -0.1194  0.0775
  958PNCE   C2A 8634   9.408  13.296   4.574  0.0139  0.4688  0.4813
  958PNCE   C3A 8635   9.488  12.843   4.728 -0.3068 -0.0945 -0.2685
  958PNCE   C1B 8636   8.742  13.576   4.988  0.0197 -0.1270 -0.1032
  958PNCE   C2B 8637   8.961  13.470   5.383 -0.2374  0.0985 -0.1920
  958PNCE   C3B 8638   8.942  13.212   5.715  0.0238 -0.0798  0.0986
  958PNCE   D4B 8639   9.137  13.120   6.063  0.2294 -0.1490  0.1477
  958PNCE   C5B 8640   9.113  12.885   6.407  0.3207 -0.0669  0.0130
  958PNCE   C6B 8641   8.845  12.597   6.593  0.0137  0.0159 -0.1903
  959CHOL   ROH 8642   9.084   8.890   6.678 -0.1666 -0.0696  0.0387
  959CHOL    R1 8643   9.352   8.967   6.728 -0.1961  0.0657 -0.0063
  959CHOL    R2 8644   9.567   8.845   6.605 -0.1487  0.0781  0.0646
  959CHOL    R3 8645   9.629   9.100   6.534 -0.2489  0.0623 -0.0849
  959CHOL    R4 8646   9.887   8.961   6.542 -0.1853  0.1836  0.0706
  959CHOL    R5 8647   9.836   9.144   6.646 -0.2964  0.2297 -0.0606
  959CHOL    C1 8648  10.131   9.267   6.439 -0.3007  0.2301 -0.0664
  959CHOL    C2 8649  10.573   9.225   6.377  0.0580 -0.0577  0.3567
  960CHOL   ROH 8650   0.534   3.061   5.188  0.0406  0.2887 -0.1550
  960CHOL    R1 8651   0.465   3.236   5.400  0.0507  0.1737 -0.0545
  960CHOL    R2 8652   0.224   3.219   5.534 -0.0194  0.2096 -0.1659
  960CHOL    R3 8653   0.384   3.204   5.753 -0.1150 -0.0443 -0.1107
  960CHOL    R4 8654   0.118   3.263   5.860 -0.0703  0.2964 -0.1944
  960CHOL    R5 8655   0.301   3.374   5.900  0.0656  0.0423 -0.1110
  960CHOL    C1 8656   0.206   3.274   6.255 -0.1896  0.1087 -0.1591
  960CHOL    C2 8657   0.180   3.147   6.689  0.4366  0.2627 -0.1037
  961PNCE   AM1 8658   0.810   4.336   4.638 -0.0606  0.3552  0.1031
  961PNCE   AM2 8659   0.917   4.085   4.583  0.4335  0.0697 -0.0869
  961PNCE   T1A 8660   0.617   4.356   5.000  0.3181  0.1482  0.0625
  961PNCE   C2A 8661   0.285   4.739   5.049  0.1068  0.0494 -0.0158
  961PNCE   C3A 8662   0.440   5.142   4.862  0.0796  0.0706 -0.0078
  961PNCE   C1B 8663   0.925   3.954   4.998  0.1758  0.2608  0.1837
  961PNCE   C2B 8664   0.767   4.040   5.385 -0.1791  0.2938 -0.0595
  961PNCE   C3B 8665   0.940   3.956   5.880 -0.1399  0.2237 -0.0111
  961PNCE   D4B 8666   1.251   4.118   6.242 -0.0150  0.3151 -0.2459
  961PNCE   C5B 8667   1.279   4.565   6.350 -0.1783 -0.0592  0.2396
  961PNCE   C6B 8668   1.471   4.975   6.286 -0.2059  0.2465 -0.2386
  962CHOL   ROH 8669   2.292   5.027   8.067 -0.0090  0.0852  0.1683
  962CHOL    R1 8670   2.481   5.222   7.986 -0.0992  0.1374  0.0842
  962CHOL    R2 8671   2.724   5.155   7.874 -0.0722  0.2023  0.1119
  962CHOL    R3 8672   2.642   5.319   7.674 -0.1459  0.0819  0.0412
  962CHOL    R4 8673   2.933   5.303   7.642 -0.1098  0.3340  0.1605
  962CHOL    R5 8674   2.814   5.485   7.659 -0.2843  0.2354  0.0729
  962CHOL    C1 8675   2.977   5.544   7.319 -0.2008  0.2976  0.1226
  962CHOL    C2 8676   3.112   5.774   7.164 -0.1217  0.1458 -0.2632
  963PNCE   AM1 8677   4.758  11.347   4.766 -0.0145 -0.2942 -0.2778
  963PNCE   AM2 8678   4.685  10.966   4.964 -0.1085  0.3674 -0.0069
  963PNCE   T1A 8679   4.668  11.689   5.013  0.0528  0.0763  0.2743
  963PNCE   C2A 8680   4.725  11.777   5.377 -0.2218 -0.2237  0.2283
  963PNCE   C3A 8681   4.539  11.633   5.820  0.1915 -0.2170  0.0652
  963PNCE   C1B 8682   4.616  11.216   5.260 -0.0110 -0.1959 -0.3633
  963PNCE   C2B 8683   4.383  11.265   5.518  0.1171  0.1364 -0.0180
  963PNCE   C3B 8684   4.072  11.311   5.703  0.0681 -0.0276  0.0507
  963PNCE   D4B 8685   4.009  11.569   6.045 -0.1133 -0.1557 -0.2925
  963PNCE   C5B 8686   3.881  11.611   6.476 -0.0511 -0.2343  0.0379
  963PNCE   C6B 8687   3.769  11.427   6.913  0.0111  0.1448 -0.1276
  964CHOL   ROH 8688   0.381  13.071   4.595 -0.0513  0.0567  0.0674
  964CHOL    R1 8689   0.472  13.027   4.859  0.0175 -0.0706  0.0230
  964CHOL    R2 8690   0.664  12.837   4.920  0.1782  0.0347 -0.1461
  964CHOL    R3 8691   0.789  13.049   5.036  0.0236  0.0497 -0.0018
  964CHOL    R4 8692   0.862  12.820   5.203  0.0098  0.0256 -0.0269
  964CHOL    R5 8693   0.774  13.007   5.271 -0.1069 -0.0293 -0.0232
  964CHOL    C1 8694   1.095  13.008   5.476 -0.2334  0.0346  0.1780
  964CHOL    C2 8695   1.371  12.848   5.646  0.0109 -0.2407  0.1412
  965XCA    COO 8696   6.139   4.498   8.110  0.3783  0.4214 -0.0130
  965XCA     C1 8697   6.254   4.676   7.787  0.2780  0.0057 -0.0688
  965XCA     C2 8698   5.955   4.879   7.422  0.1868 -0.2638 -0.2861
  965XCA     C3 8699   5.754   5.211   7.104 -0.3703  0.1572  0.0677
  965XCA     C4 8700   5.675   5.602   6.937  0.0711 -0.0258  0.1778
  965XCA     C5 8701   5.505   5.942   6.559 -0.1554 -0.1714  0.1672
  965XCA     C6 8702   5.173   6.043   6.241 -0.0440 -0.2669 -0.0834
  966XCA    COO 8703   9.556   3.677   9.032  0.0409  0.0252  0.0432
  966XCA     C1 8704   9.538   3.715   8.608 -0.2742 -0.1209 -0.4603
  966XCA     C2 8705   9.523   3.391   8.248  0.0467 -0.1324  0.1910
  966XCA     C3 8706   9.514   3.102   7.810 -0.0812 -0.0199  0.1807
  966XCA     C4 8707   9.300   2.823   7.399  0.1178  0.0994 -0.1567
  966XCA     C5 8708   9.231   2.519   7.142 -0.1379  0.0911  0.1506
  966XCA     C6 8709   9.279   2.066   6.944  0.0664 -0.0763  0.0591
  967PNCE   AM1 8710  11.436   3.465   4.434  0.1380 -0.1100  0.4893
  967PNCE   AM2 8711  11.382   3.234   4.627 -0.1036 -0.0612 -0.1611
  967PNCE   T1A 8712  11.633   3.673   4.698  0.0510  0.1892 -0.1044
  967PNCE   C2A 8713  11.766   3.814   5.023 -0.3143 -0.0945  0.2510
  967PNCE   C3A 8714  11.779   3.989   5.420  0.1528 -0.1721 -0.0006
  967PNCE   C1B 8715  11.388   3.458   5.081 -0.2580 -0.2161 -0.1605
  967PNCE   C2B 8716  11.301   3.768   5.390  0.0647 -0.0996 -0.0508
  967PNCE   C3B 8717  11.301   3.806   5.782  0.0153  0.2692  0.0813
  967PNCE   D4B 8718  11.636   3.795   6.135  0.0779 -0.1217  0.1280
  967PNCE   C5B 8719  11.785   3.388   6.235 -0.0549 -0.2338 -0.2724
  967PNCE   C6B 8720  11.565   2.988   6.287 -0.0959  0.2845 -0.1913
  968PNCE   AM1 8721   4.330  14.009   4.797  0.0382 -0.0064 -0.2063
  968PNCE   AM2 8722   4.463  13.779   4.980 -0.0270 -0.1095 -0.0987
  968PNCE   T1A 8723   4.156  14.220   5.183 -0.0373 -0.0329 -0.1195
  968PNCE   C2A 8724   4.115  14.304   5.668  0.0563  0.5347 -0.1568
  968PNCE   C3A 8725   3.889  14.296   5.974 -0.1443  0.1788  0.1222
  968PNCE   C1B 8726   4.361  13.895   5.525  0.0042 -0.2232  0.0951
  968PNCE   C2B 8727   4.639  14.064   5.855 -0.0610 -0.1709  0.1835
  968PNCE   C3B 8728   4.657  14.145   6.226 -0.0317  0.3181  0.1650
  968PNCE   D4B 8729   4.865  14.467   6.268 -0.3064 -0.0350 -0.2277
  968PNCE   C5B 8730   4.508  14.840   6.472 -0.0750  0.0427 -0.0926
  968PNCE   C6B 8731   4.211  15.009   6.330 -0.0498 -0.0260  0.1386
  969PNCE   AM1 8732  15.717   1.854   4.816 -0.1976 -0.0504 -0.1245
  969PNCE   AM2 8733  15.777   1.540   4.682 -0.1396 -0.2483  0.1573
  969PNCE   T1A 8734  15.666   1.788   5.285 -0.0219 -0.1499  0.0926
  969PNCE   C2A 8735  15.848   1.824   5.722  0.1538 -0.0391  0.0623
  969PNCE   C3A 8736  16.097   1.736   6.085 -0.0468  0.1593  0.2290
  969PNCE   C1B 8737  15.848   1.323   5.063  0.2413 -0.1281 -0.1350
  969PNCE   C2B 8738  15.653   1.352   5.446  0.2732  0.1079  0.0506
  969PNCE   C3B 8739  15.381   1.530   5.748 -0.1081  0.0151  0.0684
  969PNCE   D4B 8740  15.127   1.492   6.095 -0.0211 -0.0167 -0.3619
  969PNCE   C5B 8741  15.314   1.047   6.236 -0.1264 -0.0593  0.2893
  969PNCE   C6B 8742  15.686   0.777   6.541  0.1522 -0.1950  0.0237
  970CHOL   ROH 8743   8.684  13.889   5.517  0.1220 -0.0785  0.0778
  970CHOL    R1 8744   8.670  13.679   5.706  0.2389 -0.0669  0.1001
  970CHOL    R2 8745   8.850  13.654   5.914  0.0998  0.2085  0.2608
  970CHOL    R3 8746   8.624  13.650   6.066 -0.0311 -0.0618  0.0678
  970CHOL    R4 8747   8.807  13.463   6.199  0.0109  0.0285  0.1291
  970CHOL    R5 8748   8.603  13.421   6.135  0.1012 -0.1145 -0.0669
  970CHOL    C1 8749   8.570  13.348   6.507 -0.1639 -0.3300 -0.1288
  970CHOL    C2 8750   8.280  13.454   6.695  0.2748  0.4317 -0.0212
  971PNCE   AM1 8751   6.434   1.968   4.986  0.0388  0.1397  0.0230
  971PNCE   AM2 8752   6.524   1.670   4.942  0.1216  0.0423 -0.2679
  971PNCE   T1A 8753   6.091   2.192   5.113  0.1474 -0.1421 -0.0802
  971PNCE   C2A 8754   5.651   2.364   5.230 -0.0676  0.0268  0.2198
  971PNCE   C3A 8755   5.478   2.591   5.590 -0.0957  0.0555  0.1378
  971PNCE   C1B 8756   6.513   1.760   5.411  0.0474 -0.1598 -0.0200
  971PNCE   C2B 8757   6.520   2.205   5.630  0.2160  0.1407  0.0870
  971PNCE   C3B 8758   6.607   2.402   6.015  0.2496  0.1076 -0.1986
  971PNCE   D4B 8759   6.617   2.472   6.458  0.0906  0.1061  0.0089
  971PNCE   C5B 8760   6.511   2.271   6.780  0.2428  0.1668 -0.0964
  971PNCE   C6B 8761   6.211   2.450   7.107 -0.2642 -0.1957 -0.0216
  972CHOL   ROH 8762  11.696   7.215   4.180  0.1255 -0.0733 -0.0688
  972CHOL    R1 8763  11.832   7.375   4.369 -0.0041  0.0503 -0.0788
  972CHOL    R2 8764  11.740   7.624   4.446 -0.1994 -0.0133 -0.1036
  972CHOL    R3 8765  11.760   7.518   4.696 -0.1243  0.0249 -0.0932
  972CHOL    R4 8766  11.811   7.805   4.732 -0.2677  0.0595 -0.1329
  972CHOL    R5 8767  11.939   7.641   4.798 -0.1769  0.1304 -0.1239
  972CHOL    C1 8768  11.870   7.812   5.133 -0.2371  0.1377 -0.1401
  972CHOL    C2 8769  11.862   8.182   5.260  0.0411 -0.0574  0.0605
  973PNCE   AM1 8770   5.031   8.918   8.529  0.1909  0.0809  0.0559
  973PNCE   AM2 8771   5.363   8.707   8.483  0.0117 -0.1409 -0.0412
  973PNCE   T1A 8772   4.899   8.645   8.255  0.2449  0.1911 -0.1084
  973PNCE   C2A 8773   4.758   8.242   8.178  0.0490  0.0764  0.0362
  973PNCE   C3A 8774   4.515   8.007   7.882 -0.3956  0.0932 -0.0369
  973PNCE   C1B 8775   5.640   8.450   8.415  0.1539  0.1450  0.1085
  973PNCE   C2B 8776   5.685   8.054   8.138 -0.0662 -0.0326 -0.1515
  973PNCE   C3B 8777   6.025   7.898   7.842  0.0961 -0.1026 -0.2625
  973PNCE   D4B 8778   6.368   7.883   7.754 -0.3409  0.0017  0.1511
  973PNCE   C5B 8779   6.434   8.290   7.556  0.0929 -0.0632 -0.1016
  973PNCE   C6B 8780   6.372   8.579   7.152 -0.0889 -0.2308 -0.1020
  974XCA    COO 8781  14.385   2.143   4.369  0.2622 -0.0735 -0.2598
  974XCA     C1 8782  14.558   2.095   4.799  0.1166  0.2187 -0.1850
  974XCA     C2 8783  14.633   2.244   5.218 -0.1544 -0.3859 -0.0661
  974XCA     C3 8784  14.552   2.269   5.644  0.1656 -0.2841  0.0933
  974XCA     C4 8785  14.308   2.291   5.967 -0.0690 -0.0774 -0.1264
  974XCA     C5 8786  14.252   2.278   6.511 -0.0490 -0.0611 -0.0596
  974XCA     C6 8787  14.556   2.288   6.840 -0.2240  0.2433 -0.1694
  975CHOL   ROH 8788  10.046   4.828   7.549  0.0960 -0.0740 -0.1711
  975CHOL    R1 8789   9.825   4.829   7.372 -0.0258  0.0200 -0.0195
  975CHOL    R2 8790   9.635   5.030   7.373  0.1951  0.2318 -0.0520
  975CHOL    R3 8791   9.698   5.047   7.110  0.0330 -0.0581 -0.1137
  975CHOL    R4 8792   9.427   5.156   7.127  0.1375  0.1963 -0.0224
  975CHOL    R5 8793   9.494   4.996   6.996 -0.0917  0.0178  0.0701
  975CHOL    C1 8794   9.366   5.244   6.736 -0.0481 -0.0966 -0.0631
  975CHOL    C2 8795   9.296   5.266   6.447  0.3417  0.1063  0.2223
  976XCA    COO 8796  10.244   7.060   3.732 -0.1485 -0.0757 -0.0169
  976XCA     C1 8797  10.399   7.114   4.169 -0.0681  0.1799 -0.2011
  976XCA     C2 8798  10.521   7.169   4.529  0.0447  0.1737  0.0433
  976XCA     C3 8799  10.500   7.142   4.947 -0.1219 -0.3066 -0.0758
  976XCA     C4 8800  10.569   7.387   5.192  0.1867  0.0310 -0.2346
  976XCA     C5 8801  10.628   7.487   5.640  0.0817 -0.2566 -0.2922
  976XCA     C6 8802  10.948   7.437   5.891 -0.1691 -0.1452  0.1903
  977PNCE   AM1 8803   8.781   4.326   4.184  0.1988 -0.0924  0.0218
  977PNCE   AM2 8804   8.923   4.013   4.252  0.3410 -0.2029  0.2098
  977PNCE   T1A 8805   9.105   4.568   4.231  0.2996 -0.0059 -0.0775
  977PNCE   C2A 8806   9.388   4.982   4.375  0.0403  0.0259  0.0267
  977PNCE   C3A 8807   9.601   5.373   4.229 -0.0754 -0.2477  0.1941
  977PNCE   C1B 8808   9.163   4.148   4.599 -0.0741  0.1967 -0.0267
  977PNCE   C2B 8809   9.161   4.681   4.731 -0.1895 -0.0823  0.1253
  977PNCE   C3B 8810   9.089   5.100   4.858  0.2428 -0.1851  0.0787
  977PNCE   D4B 8811   9.354   5.422   4.911 -0.1074 -0.1621 -0.0599
  977PNCE   C5B 8812   9.683   5.335   5.171  0.2023  0.0744  0.1584
  977PNCE   C6B 8813  10.064   5.220   5.470  0.1630 -0.1037  0.1671
  978XCA    COO 8814  12.710   3.360   4.481  0.3327  0.1754 -0.1268
  978XCA     C1 8815  12.525   3.439   4.929  0.2488  0.1493 -0.5419
  978XCA     C2 8816  12.432   3.380   5.316 -0.0674  0.1989  0.0647
  978XCA     C3 8817  12.679   3.282   5.643  0.1110 -0.1510 -0.0144
  978XCA     C4 8818  12.973   2.999   5.743  0.0364 -0.1133  0.2501
  978XCA     C5 8819  13.095   2.625   5.824 -0.0991 -0.0030 -0.2213
  978XCA     C6 8820  13.390   2.396   5.631 -0.2225 -0.1489 -0.0841
  979PNCE   AM1 8821   0.241  10.061   4.531  0.0053  0.1458 -0.1119
  979PNCE   AM2 8822   0.184   9.627   4.567  0.2142  0.2101  0.3499
  979PNCE   T1A 8823   0.376  10.347   4.993  0.0142 -0.0028  0.1484
  979PNCE   C2A 8824   0.437  10.384   5.367 -0.1684  0.1187  0.0282
  979PNCE   C3A 8825   0.591  10.418   5.718 -0.2244  0.0097  0.0647
  979PNCE   C1B 8826   0.198   9.823   5.022 -0.1270  0.0734  0.0560
  979PNCE   C2B 8827   0.369   9.847   5.488 -0.1670 -0.0371 -0.1887
  979PNCE   C3B 8828   0.566   9.924   5.828  0.1341 -0.3130  0.0964
  979PNCE   D4B 8829   0.614   9.638   6.236  0.2186  0.0449 -0.1588
  979PNCE   C5B 8830   0.986   9.382   6.394  0.1621 -0.1563  0.1090
  979PNCE   C6B 8831   0.896   9.002   6.514  0.4302  0.3270  0.1909
  980PNCE   AM1 8832   7.149   8.728   4.716 -0.0783 -0.2102  0.0293
  980PNCE   AM2 8833   7.406   8.773   4.556 -0.0877 -0.1742 -0.0674
  980PNCE   T1A 8834   7.129   8.944   5.137 -0.3699  0.0775  0.0238
  980PNCE   C2A 8835   7.069   9.287   5.320 -0.1077  0.0037  0.0974
  980PNCE   C3A 8836   6.815   9.453   5.546  0.2400  0.0443  0.0202
  980PNCE   C1B 8837   7.570   8.524   4.981 -0.4262  0.1993 -0.0042
  980PNCE   C2B 8838   7.647   8.400   5.428  0.1134  0.1891  0.0947
  980PNCE   C3B 8839   7.840   8.258   5.812  0.0145 -0.3629  0.0635
  980PNCE   D4B 8840   8.087   8.472   6.122 -0.1330 -0.1847 -0.0370
  980PNCE   C5B 8841   7.960   8.853   6.371 -0.0962  0.0379  0.2602
  980PNCE   C6B 8842   7.690   9.159   6.526  0.1060  0.0221  0.4408
  981PNCE   AM1 8843   6.644   9.956   4.990  0.2300  0.0696 -0.1446
  981PNCE   AM2 8844   6.976   9.759   4.946 -0.0471  0.3583 -0.1227
  981PNCE   T1A 8845   6.406  10.249   5.214 -0.3211 -0.1282 -0.0558
  981PNCE   C2A 8846   6.360  10.493   5.660  0.2263 -0.0429 -0.0910
  981PNCE   C3A 8847   6.220  10.707   5.969  0.0358  0.0243 -0.3819
  981PNCE   C1B 8848   7.074  10.061   5.223 -0.0080 -0.3846 -0.1145
  981PNCE   C2B 8849   7.281  10.417   5.523 -0.3341  0.0549 -0.1236
  981PNCE   C3B 8850   7.354  10.524   5.968  0.1117  0.1179  0.2358
  981PNCE   D4B 8851   7.012  10.439   6.285 -0.0359 -0.0286  0.0008
  981PNCE   C5B 8852   6.642  10.535   6.104 -0.2764  0.5159  0.0898
  981PNCE   C6B 8853   6.272  10.194   6.012  0.3362  0.1720  0.0382
  982CHOL   ROH 8854   6.106  10.698   8.046  0.2744 -0.1389 -0.2441
  982CHOL    R1 8855   6.089  10.797   7.781  0.1089 -0.0495 -0.2018
  982CHOL    R2 8856   6.090  10.632   7.560 -0.0312  0.0235 -0.2617
  982CHOL    R3 8857   5.860  10.763   7.501 -0.0686  0.0457 -0.0697
  982CHOL    R4 8858   5.951  10.654   7.244 -0.0819  0.3776 -0.2172
  982CHOL    R5 8859   5.901  10.862   7.287 -0.1227  0.3162  0.0428
  982CHOL    C1 8860   5.653  10.791   7.005 -0.1466  0.6046 -0.0110
  982CHOL    C2 8861   5.605  10.806   6.596 -0.0843  0.2637  0.0196
  983PNCE   AM1 8862   7.348  10.555   8.614  0.0615 -0.0187  0.0484
  983PNCE   AM2 8863   7.038  10.575   8.618 -0.1685 -0.0970  0.2123
  983PNCE   T1A 8864   7.384  10.216   8.268 -0.1417  0.0240  0.3089
  983PNCE   C2A 8865   7.655  10.291   7.961  0.1754  0.0708  0.1212
  983PNCE   C3A 8866   7.752  10.023   7.611 -0.1425 -0.1547  0.0703
  983PNCE   C1B 8867   7.069  10.630   8.179  0.2623 -0.3119 -0.2876
  983PNCE   C2B 8868   7.203  10.862   7.830  0.2662 -0.1733  0.1120
  983PNCE   C3B 8869   7.265  11.037   7.427  0.0059 -0.3868  0.1619
  983PNCE   D4B 8870   7.161  11.284   7.071 -0.0318  0.0000  0.0659
  983PNCE   C5B 8871   7.329  11.602   6.967 -0.0198  0.1412  0.3465
  983PNCE   C6B 8872   7.694  11.704   6.984 -0.0011 -0.1482 -0.0493
  984XCA    COO 8873  15.565  10.943   5.148 -0.0908 -0.3184 -0.1723
  984XCA     C1 8874  15.501  10.763   5.626  0.2915  0.0458  0.1157
  984XCA     C2 8875  15.656  10.749   5.961 -0.2368  0.0571  0.1664
  984XCA     C3 8876  15.999  10.890   6.119 -0.1065 -0.0234  0.0104
  984XCA     C4 8877  16.249  10.842   6.472 -0.0267 -0.0968 -0.1369
  984XCA     C5 8878  16.472  10.592   6.664  0.1743  0.2660 -0.3404
  984XCA     C6 8879  16.874  10.723   6.628  0.3643 -0.3162 -0.2605
  985CHOL   ROH 8880  14.154   1.843   6.253 -0.1034 -0.0357 -0.1997
  985CHOL    R1 8881  14.282   1.608   6.346 -0.0072  0.0273 -0.1732
  985CHOL    R2 8882  14.142   1.393   6.449  0.0861  0.0081 -0.0929
  985CHOL    R3 8883  14.280   1.254   6.259  0.0893  0.0049 -0.0890
  985CHOL    R4 8884  14.186   1.050   6.447 -0.1522 -0.0239 -0.2303
  985CHOL    R5 8885  14.391   1.081   6.382 -0.0925 -0.1322 -0.1096
  985CHOL    C1 8886  14.340   0.720   6.268 -0.2878 -0.0455 -0.3068
  985CHOL    C2 8887  14.258   0.442   6.430 -0.1854 -0.1145 -0.1471
  986CHOL   ROH 8888   3.256   1.590   4.909 -0.0596  0.4249  0.2122
  986CHOL    R1 8889   3.311   1.441   5.143 -0.0597  0.2449  0.1000
  986CHOL    R2 8890   3.514   1.509   5.318  0.0850 -0.0181  0.0400
  986CHOL    R3 8891   3.313   1.504   5.502  0.1718  0.0386  0.1371
  986CHOL    R4 8892   3.559   1.486   5.660  0.2389 -0.2961  0.0036
  986CHOL    R5 8893   3.389   1.350   5.669  0.1180 -0.1480 -0.0072
  986CHOL    C1 8894   3.397   1.468   6.031  0.4099 -0.4046  0.0736
  986CHOL    C2 8895   3.396   1.448   6.420  0.1150 -0.0563  0.1159
  987XCA    COO 8896   6.654  15.006   5.210 -0.2444  0.2018 -0.2717
  987XCA     C1 8897   6.606  15.093   5.741  0.0780 -0.2704  0.2640
  987XCA     C2 8898   6.333  15.193   6.055  0.2606  0.1293  0.1434
  987XCA     C3 8899   6.055  15.463   6.410  0.0809  0.1119 -0.0217
  987XCA     C4 8900   5.940  15.496   6.819  0.2833  0.1101  0.0533
  987XCA     C5 8901   5.575  15.600   6.931  0.5222 -0.2719  0.1629
  987XCA     C6 8902   5.257  15.920   6.729  0.0067 -0.0987 -0.0762
  988PNCE   AM1 8903   8.995   2.353   5.315 -0.0289 -0.2678 -0.1731
  988PNCE   AM2 8904   8.858   2.045   5.344  0.2005  0.0712 -0.1720
  988PNCE   T1A 8905   9.054   2.338   5.783  0.0667 -0.1465 -0.0093
  988PNCE   C2A 8906   9.170   2.555   6.172  0.1037 -0.0420  0.4144
  988PNCE   C3A 8907   9.400   2.891   6.347  0.0991 -0.1625 -0.0076
  988PNCE   C1B 8908   9.020   1.875   5.682  0.1132 -0.0066  0.0883
  988PNCE   C2B 8909   9.094   1.954   6.110 -0.4681 -0.1600  0.0572
  988PNCE   C3B 8910   9.286   2.123   6.438  0.0540  0.0509 -0.0311
  988PNCE   D4B 8911   9.708   2.089   6.791 -0.0131 -0.0748  0.0568
  988PNCE   C5B 8912   9.631   1.846   7.228  0.2417 -0.0880  0.2523
  988PNCE   C6B 8913   9.833   1.707   7.646 -0.1126 -0.0382  0.0564
  989CHOL   ROH 8914   8.675   2.674   5.411  0.3471  0.1883 -0.0427
  989CHOL    R1 8915   8.814   2.755   5.644  0.2222  0.0613  0.0780
  989CHOL    R2 8916   8.808   3.014   5.739  0.3704  0.0686  0.0748
  989CHOL    R3 8917   8.727   2.894   5.969  0.0657  0.1323  0.0061
  989CHOL    R4 8918   8.890   3.121   6.058  0.2591 -0.0639  0.1490
  989CHOL    R5 8919   8.916   2.913   6.115 -0.0190 -0.0999  0.1473
  989CHOL    C1 8920   8.862   3.070   6.459 -0.0917 -0.0812  0.1277
  989CHOL    C2 8921   9.057   3.183   6.663 -0.0895  0.1956 -0.4343
  990CHOL   ROH 8922   7.981   4.607   4.677 -0.2545  0.0350  0.0154
  990CHOL    R1 8923   8.256   4.650   4.729 -0.2234  0.1014 -0.2003
  990CHOL    R2 8924   8.359   4.899   4.786 -0.2859  0.0845 -0.0383
  990CHOL    R3 8925   8.457   4.773   5.007 -0.0116 -0.1014 -0.2576
  990CHOL    R4 8926   8.644   4.994   4.958 -0.3745  0.2933 -0.0021
  990CHOL    R5 8927   8.695   4.783   4.980 -0.0251  0.3237 -0.3378
  990CHOL    C1 8928   8.902   4.931   5.264 -0.1687  0.2403 -0.1868
  990CHOL    C2 8929   9.252   5.121   5.345  0.1245  0.2201  0.1620
  991CHOL   ROH 8930   0.068  12.486   8.690  0.2039 -0.0589 -0.0625
  991CHOL    R1 8931  -0.063  12.528   8.442  0.1373 -0.0216 -0.0204
  991CHOL    R2 8932   0.011  12.730   8.268  0.2182 -0.1201 -0.0949
  991CHOL    R3 8933   0.031  12.525   8.090 -0.0063 -0.1755 -0.0595
  991CHOL    R4 8934   0.014  12.766   7.925  0.2385 -0.1766 -0.1015
  991CHOL    R5 8935  -0.113  12.590   7.910  0.0474 -0.0513 -0.0632
  991CHOL    C1 8936   0.034  12.595   7.557  0.0395 -0.2617 -0.0721
  991CHOL    C2 8937   0.073  12.552   7.193  0.3094 -0.2286 -0.0601
  992CHOL   ROH 8938  13.938   4.246   6.994 -0.0718  0.0037  0.1291
  992CHOL    R1 8939  13.995   3.974   6.941 -0.0447  0.0201  0.0750
  992CHOL    R2 8940  14.218   3.847   7.042 -0.0470  0.0152  0.0724
  992CHOL    R3 8941  14.035   3.669   7.136 -0.0438 -0.0209  0.0114
  992CHOL    R4 8942  14.294   3.537   7.174 -0.0366 -0.0050  0.0196
  992CHOL    R5 8943  14.121   3.455   7.070 -0.0152  0.0002 -0.0208
  992CHOL    C1 8944  14.167   3.189   7.339 -0.0275 -0.0508 -0.0684
  992CHOL    C2 8945  14.125   2.778   7.296  0.4647 -0.1805 -0.0779
  993CHOL   ROH 8946   2.667   1.981   5.269  0.1307 -0.1756 -0.1200
  993CHOL    R1 8947   2.477   1.938   5.474  0.1166 -0.0041 -0.0954
  993CHOL    R2 8948   2.446   1.693   5.599 -0.0293  0.0461 -0.0320
  993CHOL    R3 8949   2.483   1.840   5.824  0.0786  0.0795 -0.0711
  993CHOL    R4 8950   2.401   1.576   5.921 -0.0263  0.1380  0.0023
  993CHOL    R5 8951   2.310   1.767   5.973  0.0707  0.1921 -0.0235
  993CHOL    C1 8952   2.411   1.645   6.320  0.0768  0.2229 -0.0143
  993CHOL    C2 8953   2.459   1.286   6.351 -0.1395 -0.1565  0.0419
  994CHOL   ROH 8954   7.946  10.402   6.574  0.0064  0.0960  0.5205
  994CHOL    R1 8955   8.206  10.343   6.480 -0.1180 -0.1293  0.3032
  994CHOL    R2 8956   8.428  10.493   6.550  0.0364 -0.1582 -0.0873
  994CHOL    R3 8957   8.526  10.253   6.628 -0.0047 -0.1271  0.0628
  994CHOL    R4 8958   8.753  10.437   6.654  0.0525 -0.1712 -0.1462
  994CHOL    R5 8959   8.750  10.249   6.543 -0.0328 -0.2532 -0.0042
  994CHOL    C1 8960   9.035  10.178   6.787  0.0233 -0.1499 -0.0396
  994CHOL    C2 8961   9.396  10.128   6.924 -0.0020 -0.0806 -0.2562
  995PNCE   AM1 8962   2.242  14.759   4.670 -0.2025 -0.0057  0.2660
  995PNCE   AM2 8963   2.023  15.039   4.806  0.2314  0.1014  0.0254
  995PNCE   T1A 8964   2.217  14.710   5.128 -0.0894  0.2833 -0.1439
  995PNCE   C2A 8965   2.164  14.723   5.561 -0.0146  0.1286 -0.0438
  995PNCE   C3A 8966   2.247  14.689   5.969 -0.2626 -0.2248  0.0545
  995PNCE   C1B 8967   2.029  15.148   5.327 -0.1497 -0.0983  0.1164
  995PNCE   C2B 8968   2.117  15.212   5.797  0.1447  0.0268  0.0456
  995PNCE   C3B 8969   2.251  15.093   6.287  0.0292  0.1060  0.1808
  995PNCE   D4B 8970   2.537  14.945   6.559  0.1054  0.1597 -0.2457
  995PNCE   C5B 8971   2.292  14.892   6.995  0.0913 -0.2912  0.0072
  995PNCE   C6B 8972   1.920  14.714   7.276 -0.0356 -0.2595 -0.5881
  996CHOL   ROH 8973  14.222   7.424   3.859 -0.1968  0.2384 -0.1552
  996CHOL    R1 8974  14.278   7.424   4.137 -0.1223 -0.0509 -0.1665
  996CHOL    R2 8975  14.199   7.629   4.304  0.1379 -0.1018  0.0262
  996CHOL    R3 8976  14.085   7.427   4.445 -0.0403 -0.1016 -0.1147
  996CHOL    R4 8977  14.169   7.621   4.649  0.0925 -0.2953  0.0183
  996CHOL    R5 8978  14.220   7.409   4.643 -0.0763 -0.3335 -0.1091
  996CHOL    C1 8979  14.045   7.426   4.981 -0.1012 -0.4077 -0.1186
  996CHOL    C2 8980  13.930   7.355   5.353 -0.0553 -0.0098 -0.1572
  997PNCE   AM1 8981  13.929   2.988   4.728  0.2488  0.3949 -0.1815
  997PNCE   AM2 8982  14.017   2.667   4.668  0.2957  0.2006 -0.2133
  997PNCE   T1A 8983  13.544   3.053   5.060 -0.0994  0.0926 -0.0764
  997PNCE   C2A 8984  13.358   2.857   5.494  0.1443  0.0124 -0.0560
  997PNCE   C3A 8985  13.516   2.944   5.884  0.0137  0.0965  0.2721
  997PNCE   C1B 8986  14.200   2.568   5.125 -0.3071  0.0219 -0.0523
  997PNCE   C2B 8987  14.245   2.682   5.557 -0.0126  0.0443  0.0824
  997PNCE   C3B 8988  14.102   2.885   5.858 -0.2681 -0.3471  0.0646
  997PNCE   D4B 8989  13.956   3.157   6.108  0.2853  0.2200  0.0052
  997PNCE   C5B 8990  14.209   3.249   6.520  0.1000 -0.0895  0.1270
  997PNCE   C6B 8991  14.462   3.143   6.884  0.0852 -0.0123 -0.2995
  998PNCE   AM1 8992  12.439   7.280   3.663 -0.2371  0.4928  0.0413
  998PNCE   AM2 8993  12.754   7.209   3.610  0.0792 -0.0504 -0.1015
  998PNCE   T1A 8994  12.166   7.207   4.007  0.1626  0.4016  0.1011
  998PNCE   C2A 8995  12.389   7.260   4.423  0.0613 -0.2699  0.2395
  998PNCE   C3A 8996  12.395   7.012   4.817 -0.0671  0.0368  0.0859
  998PNCE   C1B 8997  12.700   7.190   4.067 -0.0395  0.3011  0.0944
  998PNCE   C2B 8998  12.992   7.567   4.317 -0.0600 -0.0058  0.3478
  998PNCE   C3B 8999  13.147   7.749   4.705 -0.1114  0.1331  0.2170
  998PNCE   D4B 9000  13.133   7.707   5.118 -0.0419  0.3149 -0.0376
  998PNCE   C5B 9001  12.946   7.315   5.265 -0.4848 -0.0904  0.1418
  998PNCE   C6B 9002  12.870   6.881   5.023  0.2050 -0.0317  0.1578
  999CHOL   ROH 9003   7.143   0.963   5.279  0.1474 -0.0116  0.1112
  999CHOL    R1 9004   7.165   0.948   5.560  0.0983  0.3011  0.1372
  999CHOL    R2 9005   7.076   1.149   5.728 -0.3149  0.3154 -0.0761
  999CHOL    R3 9006   6.937   0.946   5.844  0.0141  0.1671  0.0668
  999CHOL    R4 9007   6.880   1.180   6.011 -0.4279  0.2040 -0.1423
  999CHOL    R5 9008   6.957   0.988   6.079 -0.1053  0.3942  0.0333
  999CHOL    C1 9009   6.636   1.008   6.285 -0.1848 -0.0001 -0.0466
  999CHOL    C2 9010   6.241   1.067   6.481 -0.1271  0.0463 -0.2407
 1000CHOL   ROH 9011   9.021   7.580   6.115  0.0319 -0.0183  0.0066
 1000CHOL    R1 9012   9.104   7.692   6.361 -0.1362  0.1781 -0.0242
 1000CHOL    R2 9013   9.363   7.673   6.454 -0.2559  0.0188  0.2925
 1000CHOL    R3 9014   9.344   7.943   6.469 -0.0056  0.0615 -0.0413
 1000CHOL    R4 9015   9.602   7.880   6.593 -0.1810 -0.0543  0.2736
 1000CHOL    R5 9016   9.442   7.998   6.681 -0.1512  0.2101 -0.0111
 1000CHOL    C1 9017   9.724   8.255   6.688  0.0974 -0.0567 -0.0507
 1000CHOL    C2 9018   9.959   8.589   6.763 -0.0111  0.2816 -0.0686
 1001XCA    COO 9019   4.895  13.635   4.738  0.2094 -0.1462 -0.1625
 1001XCA     C1 9020   4.891  13.902   5.111  0.1671  0.0748  0.1075
 1001XCA     C2 9021   4.841  13.768   5.515 -0.1208  0.3353 -0.0323
 1001XCA     C3 9022   4.760  13.557   5.938 -0.1972  0.1053  0.0205
 1001XCA     C4 9023   4.652  13.644   6.295  0.1052 -0.4150  0.0700
 1001XCA     C5 9024   4.395  13.843   6.656 -0.2589 -0.0070 -0.0354
 1001XCA     C6 9025   4.237  13.967   7.097  0.0927  0.0189 -0.3078
 1002CHOL   ROH 9026  13.339   0.874   8.549  0.2638 -0.0877 -0.1367
 1002CHOL    R1 9027  13.200   0.692   8.383  0.2599 -0.2046 -0.0071
 1002CHOL    R2 9028  13.018   0.774   8.192  0.0766 -0.3503  0.0988
 1002CHOL    R3 9029  13.175   0.626   8.026  0.0567 -0.2858  0.0214
 1002CHOL    R4 9030  12.927   0.670   7.875 -0.0268 -0.3833  0.1390
 1002CHOL    R5 9031  13.021   0.478   7.917  0.0673 -0.3446  0.0901
 1002CHOL    C1 9032  13.020   0.470   7.535 -0.1057 -0.3418  0.0895
 1002CHOL    C2 9033  12.767   0.711   7.361  0.1292  0.1218  0.1608
 1003PNCE   AM1 9034   0.054   0.799   4.735  0.0556 -0.1410  0.0211
 1003PNCE   AM2 9035  -0.090   0.883   4.509 -0.0289  0.3626 -0.0795
 1003PNCE   T1A 9036   0.176   0.878   5.138 -0.1562  0.1621 -0.0366
 1003PNCE   C2A 9037   0.086   0.854   5.565  0.0591 -0.0219 -0.1893
 1003PNCE   C3A 9038  -0.055   0.706   5.987  0.0242  0.0374  0.3255
 1003PNCE   C1B 9039  -0.381   1.031   4.843 -0.0796  0.1620 -0.3353
 1003PNCE   C2B 9040  -0.473   0.889   5.283 -0.2731 -0.3962  0.2805
 1003PNCE   C3B 9041  -0.501   0.982   5.724  0.1009  0.1894  0.2084
 1003PNCE   D4B 9042  -0.134   1.214   5.921  0.1471  0.1275  0.2682
 1003PNCE   C5B 9043  -0.254   1.636   6.131  0.1660 -0.0124 -0.1339
 1003PNCE   C6B 9044  -0.171   1.829   6.597 -0.0701  0.2100 -0.3454
 1004CHOL   ROH 9045  11.838  12.727   8.277 -0.1110 -0.1683 -0.0680
 1004CHOL    R1 9046  11.934  12.597   8.045 -0.0048 -0.1779 -0.0193
 1004CHOL    R2 9047  11.765  12.491   7.854  0.0815 -0.2677 -0.0464
 1004CHOL    R3 9048  11.911  12.647   7.685  0.0757 -0.2490 -0.0345
 1004CHOL    R4 9049  11.787  12.444   7.512 -0.0357 -0.1482 -0.0713
 1004CHOL    R5 9050  12.000  12.493   7.524 -0.0182 -0.2157 -0.1184
 1004CHOL    C1 9051  11.936  12.563   7.154 -0.1092 -0.0612 -0.0746
 1004CHOL    C2 9052  11.819  12.584   6.756  0.1842 -0.1004  0.0340
 1005PNCE   AM1 9053   7.036   4.549   4.364 -0.2823 -0.2062  0.2170
 1005PNCE   AM2 9054   7.144   4.784   4.555  0.1781 -0.3037 -0.0690
 1005PNCE   T1A 9055   7.074   4.187   4.673 -0.0750  0.0882 -0.5160
 1005PNCE   C2A 9056   7.055   3.927   4.999 -0.6044  0.2121  0.1039
 1005PNCE   C3A 9057   7.334   3.878   5.371  0.3840 -0.3539 -0.2916
 1005PNCE   C1B 9058   7.495   4.813   4.946  0.2351  0.1733 -0.1761
 1005PNCE   C2B 9059   7.574   4.759   5.482 -0.2896 -0.3816  0.0203
 1005PNCE   C3B 9060   7.706   5.082   5.800 -0.0705 -0.0033  0.3164
 1005PNCE   D4B 9061   7.595   5.465   5.964 -0.0960  0.2536  0.2821
 1005PNCE   C5B 9062   7.225   5.471   6.176 -0.0898  0.0506  0.2073
 1005PNCE   C6B 9063   6.872   5.214   6.210  0.1009 -0.1409  0.0863
 1006PNCE   AM1 9064   3.026  15.480   4.223  0.0767  0.0086  0.0428
 1006PNCE   AM2 9065   3.340  15.451   4.213 -0.2412 -0.1433  0.2836
 1006PNCE   T1A 9066   2.994  15.910   4.463 -0.0558 -0.2110 -0.0482
 1006PNCE   C2A 9067   2.882  16.142   4.843  0.1166  0.0949 -0.1051
 1006PNCE   C3A 9068   2.641  15.964   5.255  0.4290 -0.0417  0.0192
 1006PNCE   C1B 9069   3.472  15.720   4.381  0.1241 -0.4325 -0.3281
 1006PNCE   C2B 9070   3.372  15.834   4.845  0.1189 -0.1334 -0.1588
 1006PNCE   C3B 9071   3.123  15.867   5.182  0.0084  0.1409 -0.2631
 1006PNCE   D4B 9072   3.049  15.995   5.558  0.2393 -0.0599  0.1551
 1006PNCE   C5B 9073   2.684  16.094   5.794  0.1763 -0.2266  0.2752
 1006PNCE   C6B 9074   2.386  16.193   6.165  0.1874 -0.4986 -0.3140
 1007PNCE   AM1 9075   9.485   3.024   5.065  0.0691  0.3454  0.1001
 1007PNCE   AM2 9076   9.178   3.279   5.084  0.2995  0.0313 -0.1813
 1007PNCE   T1A 9077   9.587   3.287   5.373 -0.1750  0.1577 -0.0306
 1007PNCE   C2A 9078  10.010   3.365   5.610 -0.0255 -0.0016 -0.0179
 1007PNCE   C3A 9079  10.384   3.363   5.838  0.3060  0.1548  0.0203
 1007PNCE   C1B 9080   9.083   3.486   5.435 -0.0395 -0.1074  0.3253
 1007PNCE   C2B 9081   9.284   3.621   5.752 -0.1863 -0.2619  0.3429
 1007PNCE   C3B 9082   9.697   3.416   5.973 -0.1191 -0.2883  0.1260
 1007PNCE   D4B 9083  10.059   3.417   6.196 -0.1642 -0.3209 -0.0513
 1007PNCE   C5B 9084  10.165   3.574   6.662  0.0556 -0.4198 -0.0807
 1007PNCE   C6B 9085  10.326   4.022   6.890 -0.1102  0.0979 -0.0136
 1008CHOL   ROH 9086  14.991   6.659   6.521 -0.1653 -0.1583  0.2083
 1008CHOL    R1 9087  14.936   6.514   6.285 -0.1303  0.0015  0.1002
 1008CHOL    R2 9088  14.974   6.241   6.266  0.0423  0.0387 -0.1368
 1008CHOL    R3 9089  14.714   6.242   6.187  0.0205 -0.0632 -0.0676
 1008CHOL    R4 9090  14.840   6.035   6.023  0.0474 -0.0387 -0.0744
 1008CHOL    R5 9091  14.722   6.204   5.951 -0.0309 -0.0899 -0.0644
 1008CHOL    C1 9092  14.517   5.916   5.808  0.0300 -0.1794  0.0269
 1008CHOL    C2 9093  14.557   5.698   5.419  0.0182 -0.1620 -0.3499
 1009CHOL   ROH 9094  10.930   1.206   5.066  0.0154  0.1664 -0.0919
 1009CHOL    R1 9095  11.172   1.319   5.159  0.0068  0.1566 -0.0546
 1009CHOL    R2 9096  11.181   1.560   5.295 -0.0094  0.1304  0.0021
 1009CHOL    R3 9097  11.314   1.412   5.480 -0.0160  0.0899 -0.0266
 1009CHOL    R4 9098  11.478   1.652   5.445  0.0780  0.0066 -0.0935
 1009CHOL    R5 9099  11.546   1.446   5.429 -0.0189 -0.0195 -0.0956
 1009CHOL    C1 9100  11.776   1.568   5.707  0.1225 -0.1035 -0.1759
 1009CHOL    C2 9101  12.109   1.651   5.779 -0.0293  0.0396  0.0424
 1010CHOL   ROH 9102   4.968   9.555   5.091  0.1080  0.0910  0.0094
 1010CHOL    R1 9103   4.800   9.483   5.307  0.0943  0.0971  0.0010
 1010CHOL    R2 9104   4.705   9.226   5.342  0.1077  0.0923  0.0136
 1010CHOL    R3 9105   4.816   9.253   5.589  0.0866  0.1203  0.0198
 1010CHOL    R4 9106   4.591   9.069   5.628  0.0267  0.2027  0.0426
 1010CHOL    R5 9107   4.629   9.253   5.739  0.0712  0.2176 -0.0011
 1010CHOL    C1 9108   4.630   9.003   6.026 -0.0402  0.2933  0.0654
 1010CHOL    C2 9109   4.487   8.740   6.018  0.0745  0.0930 -0.1712
 1011XCA    COO 9110   2.622  13.774   4.322 -0.1250  0.3351 -0.0304
 1011XCA     C1 9111   2.636  13.773   4.819  0.0056 -0.0757 -0.0220
 1011XCA     C2 9112   2.778  13.851   5.323  0.2046  0.0974 -0.2249
 1011XCA     C3 9113   2.784  13.755   5.698 -0.0758 -0.0881  0.4124
 1011XCA     C4 9114   2.933  13.386   5.909  0.0981 -0.2048  0.0100
 1011XCA     C5 9115   3.120  13.096   6.139 -0.1302  0.2040 -0.4775
 1011XCA     C6 9116   3.398  12.800   6.338 -0.3566  0.1327  0.1567
 1012PNCE   AM1 9117   8.519   0.625   5.237 -0.2326 -0.1626  0.0146
 1012PNCE   AM2 9118   8.186   0.517   5.128  0.0011  0.2211  0.0618
 1012PNCE   T1A 9119   8.537   0.565   5.672 -0.0783 -0.1007 -0.3562
 1012PNCE   C2A 9120   8.356   0.487   6.070 -0.1532 -0.0326  0.1326
 1012PNCE   C3A 9121   8.425   0.424   6.453  0.3083 -0.0750  0.3759
 1012PNCE   C1B 9122   8.026   0.457   5.626 -0.1453  0.1553 -0.0559
 1012PNCE   C2B 9123   7.908   0.517   5.867  0.3109 -0.2351  0.1286
 1012PNCE   C3B 9124   7.802   0.625   6.301  0.0157  0.1139  0.1643
 1012PNCE   D4B 9125   7.724   1.063   6.434  0.0790 -0.0236  0.0550
 1012PNCE   C5B 9126   7.391   1.082   6.822 -0.1206 -0.0989  0.3936
 1012PNCE   C6B 9127   7.036   0.739   6.811  0.0310 -0.0524  0.1698
 1013CHOL   ROH 9128   1.035   5.552   8.344  0.2690 -0.1193  0.0308
 1013CHOL    R1 9129   0.925   5.484   8.092  0.1629 -0.0379  0.0524
 1013CHOL    R2 9130   0.743   5.645   7.961  0.0745 -0.0104  0.1931
 1013CHOL    R3 9131   0.923   5.629   7.758 -0.0098  0.0945  0.1114
 1013CHOL    R4 9132   0.670   5.703   7.628 -0.0916 -0.0005  0.2316
 1013CHOL    R5 9133   0.799   5.535   7.576 -0.0437  0.0664  0.1544
 1013CHOL    C1 9134   0.797   5.722   7.244 -0.2675  0.1038  0.1771
 1013CHOL    C2 9135   0.843   6.016   6.965 -0.0382 -0.1708 -0.2443
 1014PNCE   AM1 9136  12.785   6.722   3.734  0.2704 -0.0364  0.0195
 1014PNCE   AM2 9137  13.051   6.905   3.962  0.1711 -0.1437 -0.0577
 1014PNCE   T1A 9138  12.426   6.780   4.111  0.2869  0.1200 -0.0423
 1014PNCE   C2A 9139  12.064   6.876   4.383  0.1535 -0.3697 -0.1269
 1014PNCE   C3A 9140  11.850   6.712   4.728 -0.1157 -0.1408 -0.1945
 1014PNCE   C1B 9141  13.151   7.324   3.932  0.2584 -0.0748  0.1547
 1014PNCE   C2B 9142  13.312   7.753   3.996 -0.0903 -0.0793 -0.0881
 1014PNCE   C3B 9143  13.345   8.022   4.222  0.0261 -0.0854 -0.1249
 1014PNCE   D4B 9144  13.522   8.160   4.608 -0.2188  0.0006  0.2859
 1014PNCE   C5B 9145  13.870   7.989   4.854  0.2023  0.0299  0.1405
 1014PNCE   C6B 9146  14.014   7.946   5.242  0.4172 -0.0229  0.0970
 1015XCA    COO 9147   7.034   6.608   3.993 -0.0687 -0.0739 -0.0952
 1015XCA     C1 9148   7.237   6.721   4.404 -0.1219  0.4017 -0.0563
 1015XCA     C2 9149   7.199   6.915   4.836  0.0863  0.1023  0.0355
 1015XCA     C3 9150   7.137   6.838   5.267  0.0387 -0.1336  0.0304
 1015XCA     C4 9151   6.987   6.904   5.725 -0.3248 -0.3208 -0.2044
 1015XCA     C5 9152   6.657   7.105   6.040 -0.2429 -0.1994 -0.0045
 1015XCA     C6 9153   6.756   7.493   6.228  0.0520 -0.4095  0.0560
 1016CHOL   ROH 9154  14.178  14.579   8.522  0.2798  0.0369 -0.1667
 1016CHOL    R1 9155  14.101  14.408   8.310  0.2616 -0.1359 -0.0216
 1016CHOL    R2 9156  14.070  14.497   8.050 -0.1166 -0.2674 -0.0243
 1016CHOL    R3 9157  14.244  14.296   7.995  0.0687 -0.0827 -0.1316
 1016CHOL    R4 9158  14.037  14.273   7.789 -0.1952 -0.4656  0.1515
 1016CHOL    R5 9159  14.105  14.115   7.922  0.1874 -0.3062  0.1656
 1016CHOL    C1 9160  14.182  13.954   7.585 -0.0669 -0.4075  0.1531
 1016CHOL    C2 9161  14.049  13.774   7.128 -0.1660 -0.1480 -0.0573
 1017XCA    COO 9162   3.744   3.803   8.428  0.2043  0.0321  0.2207
 1017XCA     C1 9163   3.358   3.975   8.173 -0.3714  0.0668  0.1181
 1017XCA     C2 9164   3.321   3.919   7.670  0.0095 -0.0142  0.1654
 1017XCA     C3 9165   3.596   4.002   7.374  0.1039 -0.0418  0.0313
 1017XCA     C4 9166   3.912   3.781   7.259 -0.3059  0.1199  0.1547
 1017XCA     C5 9167   3.995   3.592   6.862 -0.1325  0.0417  0.2798
 1017XCA     C6 9168   4.277   3.384   6.671 -0.1124 -0.1097 -0.0351
 1018CHOL   ROH 9169  13.663   2.302   4.701  0.1105  0.1187  0.0964
 1018CHOL    R1 9170  13.788   2.369   4.946  0.0210  0.2457  0.1084
 1018CHOL    R2 9171  13.732   2.603   5.082 -0.2930  0.1514  0.1482
 1018CHOL    R3 9172  13.683   2.432   5.288 -0.0674  0.0474  0.1195
 1018CHOL    R4 9173  13.799   2.670   5.415 -0.3974  0.1949  0.1606
 1018CHOL    R5 9174  13.867   2.464   5.437 -0.1128  0.2806  0.1308
 1018CHOL    C1 9175  13.791   2.549   5.801 -0.2464  0.1226  0.1409
 1018CHOL    C2 9176  13.785   2.487   6.141 -0.1963 -0.0087 -0.0893
 1019PNCE   AM1 9177   1.001   7.051   5.122 -0.0257 -0.1606  0.4027
 1019PNCE   AM2 9178   1.285   7.015   4.806 -0.0561 -0.2213 -0.0052
 1019PNCE   T1A 9179   0.966   6.795   5.536  0.1244 -0.3876  0.3015
 1019PNCE   C2A 9180   0.788   6.635   5.979  0.0740  0.0337  0.0523
 1019PNCE   C3A 9181   0.490   6.554   6.292  0.2697  0.1332 -0.2072
 1019PNCE   C1B 9182   1.643   7.094   5.037 -0.0138  0.1547  0.0339
 1019PNCE   C2B 9183   1.973   7.231   5.341  0.0072  0.0237  0.0845
 1019PNCE   C3B 9184   2.114   7.227   5.700  0.3271  0.1390 -0.1070
 1019PNCE   D4B 9185   2.145   7.196   6.093  0.0579 -0.0124 -0.1396
 1019PNCE   C5B 9186   2.491   6.986   6.292  0.1484  0.1375  0.0418
 1019PNCE   C6B 9187   2.845   7.047   6.442  0.2213 -0.1756  0.1137
 1020XCA    COO 9188  13.717   8.060   3.712  0.0421 -0.2153  0.1667
 1020XCA     C1 9189  14.115   7.857   3.595  0.2761 -0.0980  0.1100
 1020XCA     C2 9190  14.578   7.941   3.587  0.2858 -0.0391  0.3311
 1020XCA     C3 9191  14.874   7.955   3.894 -0.0568  0.3132 -0.1050
 1020XCA     C4 9192  15.141   7.764   4.244 -0.1960 -0.0719  0.0732
 1020XCA     C5 9193  15.252   7.486   4.523 -0.2284  0.1586  0.0442
 1020XCA     C6 9194  15.154   7.231   4.670 -0.0998  0.0955  0.0164
 1021PNCE   AM1 9195   5.892  11.290   4.923  0.2182 -0.0796 -0.1672
 1021PNCE   AM2 9196   5.855  11.192   4.592  0.3030 -0.0952 -0.2446
 1021PNCE   T1A 9197   6.047  11.160   5.329 -0.0594 -0.1195  0.0164
 1021PNCE   C2A 9198   5.972  10.741   5.533 -0.1942 -0.0344  0.1838
 1021PNCE   C3A 9199   5.993  10.231   5.499  0.2861  0.1750  0.0974
 1021PNCE   C1B 9200   5.974  10.832   4.840 -0.0595  0.1203  0.0798
 1021PNCE   C2B 9201   6.279  10.726   5.148 -0.0455 -0.4151  0.3187
 1021PNCE   C3B 9202   6.743  10.618   5.339  0.0371 -0.1511 -0.2114
 1021PNCE   D4B 9203   6.972  10.735   5.749  0.0010  0.1382  0.1702
 1021PNCE   C5B 9204   6.876  10.998   6.149 -0.2175 -0.1906 -0.4622
 1021PNCE   C6B 9205   6.734  10.786   6.609 -0.1980 -0.1847  0.0515
 1022XCA    COO 9206   7.200   3.352   4.545 -0.0326 -0.0105  0.1582
 1022XCA     C1 9207   7.150   3.386   4.940 -0.0088  0.1282 -0.0890
 1022XCA     C2 9208   6.962   2.994   5.155 -0.2340  0.1438 -0.2143
 1022XCA     C3 9209   6.793   2.725   5.564 -0.1391  0.3437 -0.2588
 1022XCA     C4 9210   6.749   2.873   6.043 -0.0392 -0.1754  0.2485
 1022XCA     C5 9211   6.806   3.095   6.482 -0.0018  0.2356 -0.0212
 1022XCA     C6 9212   6.852   3.462   6.557  0.0872 -0.0726  0.2679
 1023CHOL   ROH 9213   9.688  11.652   7.933  0.0324  0.2663  0.0318
 1023CHOL    R1 9214   9.827  11.466   7.771  0.0059  0.1525  0.1384
 1023CHOL    R2 9215   9.698  11.263   7.634 -0.0343  0.1503  0.1774
 1023CHOL    R3 9216   9.828  11.370   7.420  0.0659  0.0227  0.1735
 1023CHOL    R4 9217   9.797  11.087   7.354  0.0157  0.0024  0.2871
 1023CHOL    R5 9218   9.983  11.200   7.353  0.0447 -0.0465  0.2997
 1023CHOL    C1 9219   9.976  11.084   6.990  0.1390 -0.2034  0.3474
 1023CHOL    C2 9220  10.090  11.187   6.643  0.1205 -0.0159 -0.0191
 1024XCA    COO 9221  11.912  12.777   4.787 -0.0199 -0.1257 -0.2105
 1024XCA     C1 9222  11.646  12.941   5.097  0.0215  0.0020  0.0120
 1024XCA     C2 9223  11.383  13.204   5.366  0.2945  0.1258  0.0171
 1024XCA     C3 9224  11.158  13.079   5.817  0.0321 -0.2123  0.1375
 1024XCA     C4 9225  11.041  13.468   6.130  0.2646  0.0602 -0.0762
 1024XCA     C5 9226  10.957  13.592   6.529 -0.1059  0.1285  0.2465
 1024XCA     C6 9227  10.535  13.463   6.603  0.2117 -0.0805 -0.0265
 1025CHOL   ROH 9228   7.628   9.256   5.283  0.0011  0.2226 -0.0308
 1025CHOL    R1 9229   7.473   9.106   5.466 -0.0365  0.3573  0.0506
 1025CHOL    R2 9230   7.564   8.869   5.578 -0.2059  0.2412 -0.0427
 1025CHOL    R3 9231   7.506   8.996   5.812  0.0836  0.2763  0.0128
 1025CHOL    R4 9232   7.535   8.714   5.886 -0.3634  0.2090 -0.0734
 1025CHOL    R5 9233   7.365   8.843   5.930 -0.1344  0.4821  0.0190
 1025CHOL    C1 9234   7.464   8.743   6.284 -0.1833  0.2230 -0.0390
 1025CHOL    C2 9235   7.638   8.691   6.673 -0.1271  0.2917 -0.0615
 1026CHOL   ROH 9236   2.675  12.764   7.231  0.0544 -0.1849 -0.1616
 1026CHOL    R1 9237   2.397  12.746   7.180  0.0342 -0.3059 -0.0156
 1026CHOL    R2 9238   2.279  12.861   6.959 -0.1720 -0.1321  0.1807
 1026CHOL    R3 9239   2.185  12.610   6.918 -0.0320 -0.1501 -0.0435
 1026CHOL    R4 9240   1.991  12.785   6.784 -0.1481 -0.1361  0.1430
 1026CHOL    R5 9241   1.947  12.632   6.933 -0.0436 -0.3025  0.0062
 1026CHOL    C1 9242   1.735  12.505   6.643 -0.0028 -0.1554 -0.0894
 1026CHOL    C2 9243   1.455  12.778   6.533  0.1617 -0.1974  0.0177
 1027PNCE   AM1 9244  13.420   2.678   4.751 -0.2518  0.2801  0.2326
 1027PNCE   AM2 9245  13.258   2.899   4.605  0.0541  0.2213  0.0072
 1027PNCE   T1A 9246  13.241   2.611   5.036  0.0282 -0.0675 -0.0973
 1027PNCE   C2A 9247  12.947   2.763   5.297 -0.1453 -0.0758  0.0170
 1027PNCE   C3A 9248  12.580   2.845   5.302 -0.2695  0.0937  0.1546
 1027PNCE   C1B 9249  13.207   3.321   4.731  0.1087 -0.0377 -0.0770
 1027PNCE   C2B 9250  13.428   3.579   5.012  0.1907  0.1058  0.0206
 1027PNCE   C3B 9251  13.306   3.846   5.527  0.1386 -0.0049 -0.2892
 1027PNCE   D4B 9252  13.510   4.113   5.977  0.2726 -0.2272  0.1252
 1027PNCE   C5B 9253  13.917   4.070   6.100 -0.2021  0.0633  0.0513
 1027PNCE   C6B 9254  14.327   4.298   6.148 -0.3448  0.1926  0.4055
 1028CHOL   ROH 9255  10.366  13.034   8.223  0.3140 -0.2878 -0.0277
 1028CHOL    R1 9256  10.374  13.004   7.941  0.1925 -0.1598 -0.0459
 1028CHOL    R2 9257  10.565  12.851   7.813  0.1236 -0.1208 -0.1972
 1028CHOL    R3 9258  10.348  12.729   7.704  0.0657 -0.0489 -0.1624
 1028CHOL    R4 9259  10.573  12.643   7.537  0.0061 -0.0800 -0.2314
 1028CHOL    R5 9260  10.388  12.736   7.468  0.0112 -0.0219 -0.1719
 1028CHOL    C1 9261  10.374  12.409   7.273 -0.1166  0.0112 -0.2187
 1028CHOL    C2 9262  10.651  12.250   6.975  0.0497  0.0714 -0.0589
 1029PNCE   AM1 9263  14.540   2.690   4.763 -0.2371  0.1377  0.3177
 1029PNCE   AM2 9264  14.800   2.573   4.884  0.0825 -0.1297  0.0016
 1029PNCE   T1A 9265  14.497   3.002   4.989  0.1505 -0.0594  0.1308
 1029PNCE   C2A 9266  14.061   3.156   5.215  0.0043  0.1607 -0.1325
 1029PNCE   C3A 9267  13.802   3.255   5.552 -0.0839 -0.1411  0.0428
 1029PNCE   C1B 9268  14.685   2.721   5.338  0.3288 -0.0787  0.0717
 1029PNCE   C2B 9269  14.708   2.750   5.795  0.2072 -0.0254 -0.2323
 1029PNCE   C3B 9270  15.042   3.023   6.077  0.0017  0.1132 -0.0622
 1029PNCE   D4B 9271  15.539   2.920   6.081 -0.3627  0.2308 -0.1066
 1029PNCE   C5B 9272  15.640   2.621   5.940 -0.0761 -0.1277 -0.1206
 1029PNCE   C6B 9273  15.792   2.250   6.125 -0.1034  0.0632  0.0947
 1030XCA    COO 9274  11.087  14.411   8.823  0.1100  0.3928  0.3375
 1030XCA     C1 9275  11.093  14.072   8.425 -0.1053  0.1490 -0.1520
 1030XCA     C2 9276  11.010  13.871   8.063 -0.4104  0.0064  0.2032
 1030XCA     C3 9277  11.037  13.704   7.650 -0.3384 -0.3832 -0.1444
 1030XCA     C4 9278  11.296  13.860   7.313 -0.2257 -0.0341  0.0455
 1030XCA     C5 9279  11.016  13.990   6.964  0.1277 -0.3013 -0.0823
 1030XCA     C6 9280  10.510  13.877   6.940 -0.3521  0.0070 -0.3007
 1031CHOL   ROH 9281   3.620   5.757   5.154  0.2364 -0.1829 -0.1195
 1031CHOL    R1 9282   3.612   5.686   5.427  0.2802 -0.3992 -0.1740
 1031CHOL    R2 9283   3.830   5.578   5.559  0.5638  0.2236 -0.1099
 1031CHOL    R3 9284   3.787   5.784   5.732 -0.2396 -0.0156  0.0169
 1031CHOL    R4 9285   3.983   5.612   5.867  0.4546  0.6238 -0.0936
 1031CHOL    R5 9286   3.793   5.681   5.948  0.1535 -0.1483 -0.0434
 1031CHOL    C1 9287   4.032   5.825   6.208 -0.3632  0.6322  0.0350
 1031CHOL    C2 9288   4.212   5.994   6.465  0.1407 -0.2483  0.1478
 1032PNCE   AM1 9289   5.984   0.529   4.356 -0.1679  0.0656  0.0961
 1032PNCE   AM2 9290   5.803   0.280   4.470  0.0998  0.0920 -0.1396
 1032PNCE   T1A 9291   6.212   0.666   4.644 -0.1744  0.3595  0.1144
 1032PNCE   C2A 9292   6.294   0.739   5.093 -0.0088  0.1468 -0.1976
 1032PNCE   C3A 9293   6.211   0.531   5.446  0.0298  0.2109  0.1774
 1032PNCE   C1B 9294   5.786   0.487   4.855  0.2102  0.0594  0.1603
 1032PNCE   C2B 9295   5.823   0.717   5.164 -0.3104  0.0921 -0.1161
 1032PNCE   C3B 9296   5.857   0.861   5.621  0.1060 -0.4327 -0.2572
 1032PNCE   D4B 9297   6.011   1.115   6.060 -0.2314  0.0180  0.0676
 1032PNCE   C5B 9298   5.603   1.443   6.140 -0.0727  0.0016  0.0240
 1032PNCE   C6B 9299   5.425   1.519   6.509 -0.0976  0.1311  0.3086
 1033PNCE   AM1 9300   3.190   3.814   4.949  0.2226 -0.0841  0.1037
 1033PNCE   AM2 9301   2.823   3.810   5.030  0.0434  0.1141 -0.2079
 1033PNCE   T1A 9302   3.258   3.822   5.421  0.0391  0.1074 -0.2219
 1033PNCE   C2A 9303   3.121   3.905   5.752  0.2426  0.0031  0.1343
 1033PNCE   C3A 9304   2.948   3.953   6.086  0.1050  0.3242  0.2883
 1033PNCE   C1B 9305   2.698   3.963   5.428 -0.1546 -0.3105  0.0558
 1033PNCE   C2B 9306   2.511   3.930   5.825 -0.1357  0.0895  0.0221
 1033PNCE   C3B 9307   2.159   3.838   6.096  0.0716  0.2768  0.1495
 1033PNCE   D4B 9308   1.839   4.179   6.427  0.0803 -0.0486  0.1840
 1033PNCE   C5B 9309   1.805   4.657   6.468  0.1204 -0.0912  0.1351
 1033PNCE   C6B 9310   1.879   5.117   6.547  0.0040  0.0996 -0.3248
 1034PNCE   AM1 9311   5.775  12.090   4.815 -0.2748  0.0631  0.2950
 1034PNCE   AM2 9312   5.960  11.861   4.846  0.0622 -0.0596 -0.2851
 1034PNCE   T1A 9313   5.868  12.251   5.204 -0.0379 -0.0043  0.1031
 1034PNCE   C2A 9314   6.188  12.505   5.493 -0.0713 -0.5892  0.0279
 1034PNCE   C3A 9315   6.442  12.807   5.362 -0.0175  0.2869  0.1483
 1034PNCE   C1B 9316   5.763  11.767   5.271  0.2685 -0.0779  0.2431
 1034PNCE   C2B 9317   5.758  11.553   5.623  0.3619 -0.0756  0.2048
 1034PNCE   C3B 9318   5.638  11.473   6.092  0.2412  0.0919  0.2326
 1034PNCE   D4B 9319   5.582  11.232   6.333 -0.1334 -0.0795 -0.0474
 1034PNCE   C5B 9320   5.399  11.300   6.740 -0.0123 -0.1298  0.0914
 1034PNCE   C6B 9321   5.069  11.345   6.903 -0.0689  0.0021 -0.1796
 1035CHOL   ROH 9322   7.658   7.550   4.739 -0.0456  0.1933 -0.2214
 1035CHOL    R1 9323   7.724   7.435   4.989  0.0452  0.3806 -0.1580
 1035CHOL    R2 9324   7.686   7.568   5.229 -0.3030  0.3870 -0.2156
 1035CHOL    R3 9325   7.546   7.344   5.293  0.0619  0.1494 -0.2146
 1035CHOL    R4 9326   7.642   7.448   5.550 -0.3470  0.4882 -0.1827
 1035CHOL    R5 9327   7.670   7.246   5.473  0.1047  0.4857 -0.0494
 1035CHOL    C1 9328   7.484   7.168   5.797 -0.0300  0.3241 -0.1626
 1035CHOL    C2 9329   7.349   7.358   6.241  0.0661 -0.1773 -0.1843
 1036PNCE   AM1 9330   8.024  12.240   5.488 -0.0515  0.3757 -0.1675
 1036PNCE   AM2 9331   7.818  11.993   5.371  0.1844 -0.4573  0.2769
 1036PNCE   T1A 9332   7.985  12.403   5.958 -0.0148  0.0228 -0.1742
 1036PNCE   C2A 9333   7.926  12.733   6.228 -0.0234  0.2355 -0.1242
 1036PNCE   C3A 9334   7.952  13.093   6.506  0.1498 -0.2038 -0.1352
 1036PNCE   C1B 9335   7.564  12.127   5.715  0.1161 -0.1384 -0.0672
 1036PNCE   C2B 9336   7.464  12.004   6.136  0.1746 -0.0055  0.1471
 1036PNCE   C3B 9337   7.212  11.871   6.561  0.1838  0.1971 -0.0685
 1036PNCE   D4B 9338   6.910  11.594   6.642 -0.1063  0.0892 -0.3153
 1036PNCE   C5B 9339   7.076  11.208   6.568  0.0178 -0.2029 -0.2037
 1036PNCE   C6B 9340   7.476  11.197   6.699  0.1509 -0.0757  0.1952
 1037XCA    COO 9341   8.195   6.651   7.703  0.1427 -0.4608 -0.1225
 1037XCA     C1 9342   8.234   6.865   7.323  0.1265 -0.2058  0.0905
 1037XCA     C2 9343   8.415   6.714   6.971  0.1809  0.2024  0.1795
 1037XCA     C3 9344   8.524   6.424   6.590  0.0572 -0.0325  0.4467
 1037XCA     C4 9345   8.765   6.498   6.230 -0.2828  0.1422 -0.3015
 1037XCA     C5 9346   8.735   6.358   5.744  0.3690  0.2943 -0.2469
 1037XCA     C6 9347   8.797   6.034   5.474 -0.3929 -0.1486 -0.3555
 1038PNCE   AM1 9348  14.539  13.487   4.817  0.2709 -0.2667 -0.0453
 1038PNCE   AM2 9349  14.910  13.668   4.805 -0.0587  0.1263  0.0910
 1038PNCE   T1A 9350  14.442  13.584   5.286 -0.0583  0.0469 -0.3228
 1038PNCE   C2A 9351  14.290  13.565   5.726  0.4221 -0.1689 -0.1421
 1038PNCE   C3A 9352  14.222  13.387   6.158 -0.2261  0.0078 -0.0498
 1038PNCE   C1B 9353  14.918  13.680   5.269 -0.1262  0.0113 -0.1099
 1038PNCE   C2B 9354  14.847  13.601   5.682 -0.1017 -0.1349  0.0348
 1038PNCE   C3B 9355  14.755  13.395   6.017 -0.0807 -0.3060 -0.0052
 1038PNCE   D4B 9356  14.693  13.232   6.462 -0.0529  0.5150 -0.1836
 1038PNCE   C5B 9357  14.660  13.288   6.902  0.1950  0.1379 -0.2035
 1038PNCE   C6B 9358  14.312  13.369   7.103 -0.2405  0.2020 -0.2169
 1039CHOL   ROH 9359   0.555   6.370   8.267 -0.0676  0.0452  0.0829
 1039CHOL    R1 9360   0.406   6.484   8.055  0.0615  0.0854  0.0125
 1039CHOL    R2 9361   0.499   6.492   7.795  0.0635 -0.2025  0.0003
 1039CHOL    R3 9362   0.262   6.370   7.741 -0.0901  0.0451  0.0957
 1039CHOL    R4 9363   0.351   6.476   7.483  0.0133 -0.2098  0.0245
 1039CHOL    R5 9364   0.158   6.511   7.578  0.0608  0.0752  0.0247
 1039CHOL    C1 9365   0.043   6.352   7.250 -0.1601  0.0184  0.1281
 1039CHOL    C2 9366   0.018   6.288   6.784  0.2368  0.1309 -0.0798
 1040CHOL   ROH 9367   8.172   8.357   4.502  0.0074  0.0720  0.1058
 1040CHOL    R1 9368   8.090   8.393   4.770 -0.0587  0.1394  0.0756
 1040CHOL    R2 9369   8.069   8.184   4.949 -0.2176  0.1711  0.0868
 1040CHOL    R3 9370   8.233   8.340   5.100 -0.1911  0.1035  0.1300
 1040CHOL    R4 9371   8.130   8.137   5.286  0.0646 -0.1753 -0.0059
 1040CHOL    R5 9372   8.123   8.354   5.312 -0.0449 -0.1982  0.2376
 1040CHOL    C1 9373   8.320   8.256   5.624  0.2537 -0.4405 -0.0194
 1040CHOL    C2 9374   8.260   7.929   5.757 -0.1607  0.1484  0.0176
 1041CHOL   ROH 9375   4.238  13.377   6.649  0.1757  0.0694  0.0758
 1041CHOL    R1 9376   4.432  13.210   6.770  0.1422  0.0847  0.1507
 1041CHOL    R2 9377   4.371  13.033   6.973  0.0626  0.0295  0.0762
 1041CHOL    R3 9378   4.486  12.852   6.807  0.1978  0.0874  0.1045
 1041CHOL    R4 9379   4.454  12.710   7.061 -0.1822 -0.0607 -0.0158
 1041CHOL    R5 9380   4.638  12.731   6.947 -0.0250 -0.0620  0.2262
 1041CHOL    C1 9381   4.610  12.351   6.956 -0.1979 -0.0587 -0.0428
 1041CHOL    C2 9382   4.913  12.081   6.985 -0.2995 -0.3472 -0.0704
 1042PNCE   AM1 9383   7.261  12.466   4.966 -0.1221  0.1629 -0.1286
 1042PNCE   AM2 9384   7.343  12.095   4.836  0.1942  0.1528  0.0528
 1042PNCE   T1A 9385   7.156  12.392   5.452 -0.0376  0.0963  0.0039
 1042PNCE   C2A 9386   7.058  12.252   5.860 -0.0332  0.0059 -0.3974
 1042PNCE   C3A 9387   6.799  11.978   6.205  0.2315  0.0798 -0.1114
 1042PNCE   C1B 9388   7.372  12.002   5.258  0.2898  0.1580 -0.0695
 1042PNCE   C2B 9389   7.028  11.891   5.567 -0.0391  0.0495 -0.1384
 1042PNCE   C3B 9390   6.702  11.715   5.736 -0.1844 -0.0486  0.1355
 1042PNCE   D4B 9391   6.197  11.615   5.765 -0.2418  0.0599  0.0494
 1042PNCE   C5B 9392   5.942  11.132   5.886 -0.1510  0.1257 -0.1325
 1042PNCE   C6B 9393   5.759  10.860   6.145 -0.0727 -0.2002 -0.1546
 1043PNCE   AM1 9394  12.826  15.252   4.976  0.0270  0.0219  0.0528
 1043PNCE   AM2 9395  13.129  15.018   4.936  0.0146 -0.2039 -0.2200
 1043PNCE   T1A 9396  12.659  14.978   5.205 -0.1341 -0.2169 -0.2662
 1043PNCE   C2A 9397  12.609  14.883   5.619  0.3723  0.1336 -0.5020
 1043PNCE   C3A 9398  12.511  14.910   6.086  0.1603 -0.2838  0.1707
 1043PNCE   C1B 9399  13.126  15.042   5.339  0.3120  0.2723 -0.1875
 1043PNCE   C2B 9400  13.115  15.007   5.775 -0.0259 -0.1908 -0.1704
 1043PNCE   C3B 9401  13.141  14.969   6.248  0.0621  0.2119 -0.1560
 1043PNCE   D4B 9402  13.027  14.963   6.666  0.1093  0.1312 -0.1124
 1043PNCE   C5B 9403  13.095  15.395   6.875 -0.1049  0.4784  0.0654
 1043PNCE   C6B 9404  13.265  15.747   6.796  0.1769  0.0270  0.2216
 1044PNCE   AM1 9405   2.304   8.275   4.210  0.1065 -0.1810 -0.1067
 1044PNCE   AM2 9406   1.995   8.242   4.250  0.0813 -0.1175  0.2962
 1044PNCE   T1A 9407   2.241   8.349   4.746  0.0885  0.0424  0.2727
 1044PNCE   C2A 9408   2.210   8.318   5.154  0.0212  0.2662 -0.1004
 1044PNCE   C3A 9409   2.235   8.175   5.586 -0.2048  0.1589  0.1105
 1044PNCE   C1B 9410   1.780   8.473   4.522 -0.1637  0.1408  0.2314
 1044PNCE   C2B 9411   1.653   8.590   4.958 -0.1293  0.0009  0.1846
 1044PNCE   C3B 9412   1.669   8.393   5.294 -0.2299  0.1329 -0.2300
 1044PNCE   D4B 9413   1.769   8.050   5.399  0.1428  0.0016 -0.1309
 1044PNCE   C5B 9414   2.095   7.781   5.245 -0.3070  0.1887  0.1471
 1044PNCE   C6B 9415   2.417   7.594   5.478 -0.0526 -0.0128 -0.0497
 1045CHOL   ROH 9416   3.782   4.819   8.820 -0.0202  0.1042 -0.0208
 1045CHOL    R1 9417   3.802   4.885   8.546  0.0762 -0.2288 -0.0984
 1045CHOL    R2 9418   3.757   4.701   8.345 -0.4009 -0.3482  0.1062
 1045CHOL    R3 9419   3.580   4.888   8.258  0.0075 -0.0138 -0.0466
 1045CHOL    R4 9420   3.663   4.745   8.015 -0.2801 -0.3966  0.0644
 1045CHOL    R5 9421   3.669   4.960   8.047  0.1926 -0.3694 -0.1019
 1045CHOL    C1 9422   3.441   4.945   7.742  0.1736 -0.1107 -0.1034
 1045CHOL    C2 9423   3.317   5.134   7.398 -0.5004 -0.0676 -0.0316
 1046CHOL   ROH 9424   1.969  15.282   8.818 -0.2165 -0.1702  0.0398
 1046CHOL    R1 9425   2.176  15.240   8.629 -0.2115 -0.2280  0.0631
 1046CHOL    R2 9426   2.178  15.024   8.457 -0.4483 -0.0265 -0.1738
 1046CHOL    R3 9427   2.202  15.217   8.267 -0.1143  0.1540  0.0363
 1046CHOL    R4 9428   2.321  14.979   8.145 -0.6262  0.0003 -0.2634
 1046CHOL    R5 9429   2.414  15.175   8.164 -0.2079 -0.1847 -0.0634
 1046CHOL    C1 9430   2.426  15.134   7.785 -0.4162  0.1853 -0.1183
 1046CHOL    C2 9431   2.394  14.912   7.498  0.1347  0.1449 -0.2905
 1047PNCE   AM1 9432   4.389   8.417   4.863 -0.2921  0.0126 -0.2052
 1047PNCE   AM2 9433   4.437   8.182   4.814 -0.2308 -0.1315 -0.0090
 1047PNCE   T1A 9434   4.230   8.315   5.269 -0.0939 -0.0440  0.1224
 1047PNCE   C2A 9435   4.128   8.246   5.640 -0.0253  0.4324  0.0639
 1047PNCE   C3A 9436   4.163   8.269   6.129 -0.0885 -0.2170 -0.0282
 1047PNCE   C1B 9437   4.697   8.131   5.193 -0.0339 -0.0636  0.1374
 1047PNCE   C2B 9438   4.921   7.930   5.638 -0.2065 -0.2014  0.0626
 1047PNCE   C3B 9439   4.835   7.670   5.961 -0.2695 -0.0535 -0.2268
 1047PNCE   D4B 9440   4.810   7.360   6.343 -0.0925  0.1894 -0.0623
 1047PNCE   C5B 9441   4.608   7.347   6.640 -0.0722  0.1048  0.0214
 1047PNCE   C6B 9442   4.447   7.374   7.024  0.2861  0.1330  0.3342
 1048CHOL   ROH 9443   8.219  11.468   5.193  0.0582  0.1076  0.0786
 1048CHOL    R1 9444   8.046  11.582   5.386 -0.0233  0.0598  0.0353
 1048CHOL    R2 9445   8.010  11.472   5.637 -0.0214  0.0742  0.0457
 1048CHOL    R3 9446   8.079  11.722   5.720 -0.1363  0.1135  0.0232
 1048CHOL    R4 9447   7.931  11.606   5.945 -0.0914  0.0793  0.0253
 1048CHOL    R5 9448   7.890  11.796   5.847 -0.1704  0.0469  0.0056
 1048CHOL    C1 9449   7.949  11.918   6.203 -0.2401  0.1192 -0.0076
 1048CHOL    C2 9450   7.673  11.713   6.505  0.0127 -0.0390 -0.0299
 1049CHOL   ROH 9451  14.590  10.770   8.865  0.0420 -0.0627 -0.0692
 1049CHOL    R1 9452  14.676  10.884   8.620 -0.0049 -0.0628 -0.0860
 1049CHOL    R2 9453  14.627  10.766   8.375 -0.1905  0.0168 -0.0888
 1049CHOL    R3 9454  14.519  11.008   8.316 -0.0752  0.0945  0.0122
 1049CHOL    R4 9455  14.639  10.917   8.065 -0.2241  0.0795 -0.0592
 1049CHOL    R5 9456  14.674  11.108   8.165 -0.0743  0.0384 -0.0264
 1049CHOL    C1 9457  14.543  11.233   7.829 -0.1353  0.1889  0.0527
 1049CHOL    C2 9458  14.481  11.410   7.499  0.0661 -0.2164  0.3480
 1050CHOL   ROH 9459  15.319   4.564   4.632 -0.0712  0.3279 -0.1327
 1050CHOL    R1 9460  15.147   4.496   4.846  0.0806  0.2277 -0.0390
 1050CHOL    R2 9461  15.036   4.685   5.014 -0.0254  0.1781 -0.0382
 1050CHOL    R3 9462  14.803   4.565   4.941  0.0572 -0.0572  0.0821
 1050CHOL    R4 9463  14.741   4.698   5.195 -0.0313  0.1113 -0.0448
 1050CHOL    R5 9464  14.709   4.488   5.148  0.1206  0.0529  0.1442
 1050CHOL    C1 9465  14.352   4.592   5.232  0.0428 -0.1485  0.0643
 1050CHOL    C2 9466  14.104   4.768   5.363  0.1978  0.1253  0.0252
 1051CHOL   ROH 9467  11.673  12.160   5.558  0.1779 -0.1179 -0.0272
 1051CHOL    R1 9468  11.721  12.277   5.811  0.1445 -0.0029 -0.0730
 1051CHOL    R2 9469  11.709  12.133   6.047 -0.0782  0.1456  0.0102
 1051CHOL    R3 9470  11.960  12.231   6.082 -0.0194 -0.0237  0.0693
 1051CHOL    R4 9471  11.852  12.203   6.353 -0.0511 -0.0849  0.0517
 1051CHOL    R5 9472  11.939  12.383   6.266  0.0635 -0.0960  0.1395
 1051CHOL    C1 9473  12.171  12.336   6.565  0.0199 -0.3780  0.1313
 1051CHOL    C2 9474  12.177  12.157   6.885  0.3153  0.1422 -0.1630
 1052CHOL   ROH 9475   9.526   4.419   4.710 -0.0769  0.2297  0.0524
 1052CHOL    R1 9476   9.538   4.327   4.978 -0.1541  0.3011  0.0807
 1052CHOL    R2 9477   9.760   4.197   5.080 -0.2900  0.0818  0.0971
 1052CHOL    R3 9478   9.745   4.391   5.270 -0.0490  0.1609  0.0388
 1052CHOL    R4 9479   9.941   4.199   5.374 -0.1792  0.0166  0.0303
 1052CHOL    R5 9480   9.763   4.272   5.477 -0.0802  0.2108  0.0721
 1052CHOL    C1 9481  10.033   4.382   5.724  0.1115  0.0530 -0.0634
 1052CHOL    C2 9482  10.023   4.489   6.172 -0.3772  0.2654 -0.0388
 1053CHOL   ROH 9483   3.434  10.941   8.863  0.1235 -0.0008 -0.0270
 1053CHOL    R1 9484   3.447  11.026   8.594 -0.2213  0.0397 -0.0346
 1053CHOL    R2 9485   3.616  10.909   8.409 -0.1174  0.3688 -0.1500
 1053CHOL    R3 9486   3.386  10.878   8.267 -0.1616 -0.0649  0.0000
 1053CHOL    R4 9487   3.601  10.849   8.069 -0.2121  0.7116 -0.2108
 1053CHOL    R5 9488   3.431  10.985   8.057 -0.5908  0.2999  0.0763
 1053CHOL    C1 9489   3.377  10.784   7.737 -0.3088  0.5039 -0.1052
 1053CHOL    C2 9490   3.732  10.701   7.620  0.1244 -0.1331 -0.0403
 1054PNCE   AM1 9491   3.697   4.263   5.239  0.1527 -0.0289  0.0934
 1054PNCE   AM2 9492   3.660   3.963   5.147 -0.1470 -0.0223 -0.0868
 1054PNCE   T1A 9493   3.446   4.287   5.638  0.0132 -0.1284  0.2479
 1054PNCE   C2A 9494   3.263   4.349   5.975  0.0118  0.0456 -0.1130
 1054PNCE   C3A 9495   3.366   4.573   6.289  0.0794  0.0690 -0.2539
 1054PNCE   C1B 9496   3.723   3.873   5.589  0.1706  0.1407  0.1645
 1054PNCE   C2B 9497   3.984   3.742   5.937  0.3231 -0.2857  0.0371
 1054PNCE   C3B 9498   4.111   3.890   6.302  0.2181  0.0327  0.2243
 1054PNCE   D4B 9499   3.724   3.675   6.468  0.1041  0.1175  0.0558
 1054PNCE   C5B 9500   3.588   3.327   6.631 -0.1795 -0.1169  0.0245
 1054PNCE   C6B 9501   3.765   2.908   6.955 -0.1212 -0.3150  0.0232
 1055CHOL   ROH 9502   6.001   8.175   4.594  0.1702  0.0682 -0.0894
 1055CHOL    R1 9503   6.091   8.008   4.804  0.1029  0.0936 -0.0389
 1055CHOL    R2 9504   6.341   8.037   4.921  0.0961  0.0624 -0.0092
 1055CHOL    R3 9505   6.196   8.052   5.150  0.0643  0.1491 -0.0351
 1055CHOL    R4 9506   6.463   7.972   5.237  0.0839  0.3227  0.0512
 1055CHOL    R5 9507   6.276   7.870   5.284  0.1252  0.2730  0.0947
 1055CHOL    C1 9508   6.398   7.947   5.637  0.0469  0.5556  0.0620
 1055CHOL    C2 9509   6.487   8.040   5.869  0.0831  0.2297  0.1731
 1056PNCE   AM1 9510   4.139   0.437   4.673  0.0179 -0.0120  0.0921
 1056PNCE   AM2 9511   3.995   0.182   4.567 -0.1476 -0.0220 -0.3070
 1056PNCE   T1A 9512   4.246   0.671   5.120  0.1841  0.0215  0.1317
 1056PNCE   C2A 9513   4.152   1.025   5.361 -0.0005 -0.0572 -0.0452
 1056PNCE   C3A 9514   4.006   1.412   5.552  0.1145  0.0963 -0.0652
 1056PNCE   C1B 9515   4.191   0.049   4.968  0.1472 -0.1516 -0.2242
 1056PNCE   C2B 9516   4.208  -0.011   5.427  0.2639  0.4750  0.1016
 1056PNCE   C3B 9517   4.024   0.134   5.861 -0.0475 -0.0563  0.1314
 1056PNCE   D4B 9518   3.804  -0.016   6.263  0.0466 -0.0086 -0.2289
 1056PNCE   C5B 9519   3.771   0.173   6.761  0.0065 -0.2214  0.0137
 1056PNCE   C6B 9520   3.534   0.178   7.199  0.1585  0.0287 -0.1724
 1057CHOL   ROH 9521  10.130  10.241   4.964  0.0027  0.1732  0.0042
 1057CHOL    R1 9522  10.165  10.285   5.241 -0.0559  0.0638  0.0295
 1057CHOL    R2 9523  10.025  10.144   5.433 -0.0564 -0.0504 -0.0541
 1057CHOL    R3 9524  10.274  10.090   5.529 -0.0604 -0.0327 -0.0339
 1057CHOL    R4 9525  10.133  10.215   5.754 -0.0118  0.1805 -0.1188
 1057CHOL    R5 9526  10.325  10.276   5.670 -0.0045  0.0697 -0.1864
 1057CHOL    C1 9527  10.430  10.206   6.030  0.0105  0.3317 -0.1374
 1057CHOL    C2 9528  10.350  10.420   6.352 -0.0219 -0.3990 -0.1833
 1058PNCE   AM1 9529  10.996   5.677   3.650  0.0047  0.1028  0.0540
 1058PNCE   AM2 9530  11.362   5.749   3.578  0.1058 -0.1112 -0.1694
 1058PNCE   T1A 9531  11.055   5.748   4.093 -0.2545 -0.0887  0.1027
 1058PNCE   C2A 9532  11.161   5.977   4.495 -0.1218 -0.1493  0.0959
 1058PNCE   C3A 9533  11.230   6.065   4.877 -0.1573 -0.1715  0.1074
 1058PNCE   C1B 9534  11.534   5.640   4.003 -0.0186 -0.2333  0.3412
 1058PNCE   C2B 9535  11.687   5.436   4.321  0.0232  0.1300 -0.0187
 1058PNCE   C3B 9536  11.914   5.230   4.691  0.1567 -0.2536  0.3099
 1058PNCE   D4B 9537  11.951   5.055   5.059 -0.2032  0.0741  0.2103
 1058PNCE   C5B 9538  12.324   4.815   5.053  0.2049 -0.3454  0.1302
 1058PNCE   C6B 9539  12.326   4.467   4.798 -0.1240 -0.4425  0.1237
 1059CHOL   ROH 9540   0.547  14.329   5.203  0.1045 -0.0982 -0.2173
 1059CHOL    R1 9541   0.754  14.323   5.395  0.1077 -0.1792 -0.2237
 1059CHOL    R2 9542   0.724  14.423   5.651  0.2407  0.0938 -0.3112
 1059CHOL    R3 9543   0.807  14.174   5.723 -0.0605  0.0511 -0.0890
 1059CHOL    R4 9544   0.884  14.346   5.947 -0.0340  0.1204 -0.1514
 1059CHOL    R5 9545   1.014  14.211   5.836 -0.0953 -0.0888  0.0237
 1059CHOL    C1 9546   1.056  14.068   6.187 -0.4767  0.0960  0.1502
 1059CHOL    C2 9547   1.007  14.343   6.417  0.1186  0.0788  0.0790
 1060PNCE   AM1 9548   8.402   9.788   4.493 -0.0006 -0.2410 -0.0289
 1060PNCE   AM2 9549   8.323   9.610   4.763  0.0222 -0.2489  0.2735
 1060PNCE   T1A 9550   8.449  10.206   4.822 -0.0161  0.1317  0.0640
 1060PNCE   C2A 9551   8.536  10.192   5.224  0.0317 -0.2249  0.2285
 1060PNCE   C3A 9552   8.682  10.073   5.711  0.0207 -0.0874  0.1940
 1060PNCE   C1B 9553   8.344   9.743   5.226 -0.2642  0.0168  0.1752
 1060PNCE   C2B 9554   8.258   9.725   5.585 -0.1476  0.0996 -0.2135
 1060PNCE   C3B 9555   8.145   9.571   5.939  0.1316 -0.1816  0.1236
 1060PNCE   D4B 9556   7.833   9.591   6.320  0.5036 -0.2370 -0.1961
 1060PNCE   C5B 9557   7.605   9.953   6.506  0.6078 -0.0095 -0.2127
 1060PNCE   C6B 9558   7.492  10.401   6.476 -0.1430 -0.0342  0.0715
 1061PNCE   AM1 9559   5.424  12.970   5.003 -0.2045 -0.1431  0.0309
 1061PNCE   AM2 9560   5.637  13.191   4.894  0.2145  0.2471 -0.0465
 1061PNCE   T1A 9561   5.150  12.716   4.876  0.2650 -0.0362 -0.1093
 1061PNCE   C2A 9562   4.766  12.708   4.898  0.0837 -0.1066 -0.1379
 1061PNCE   C3A 9563   4.523  12.904   5.153 -0.1197  0.1227 -0.1310
 1061PNCE   C1B 9564   5.672  13.136   5.396  0.0050 -0.1848 -0.2787
 1061PNCE   C2B 9565   5.334  13.184   5.669  0.3949 -0.1081  0.1139
 1061PNCE   C3B 9566   4.981  13.106   5.816  0.1364  0.0551  0.0072
 1061PNCE   D4B 9567   4.805  13.079   6.141  0.3751 -0.0851 -0.1540
 1061PNCE   C5B 9568   4.362  13.243   6.224  0.0356 -0.0220  0.0589
 1061PNCE   C6B 9569   3.926  13.373   6.264 -0.0610 -0.0840  0.1519
 1062CHOL   ROH 9570   4.380  12.579   6.560 -0.0102  0.0241  0.0555
 1062CHOL    R1 9571   4.520  12.604   6.316 -0.0505 -0.0927  0.0200
 1062CHOL    R2 9572   4.795  12.631   6.304 -0.0736  0.1193 -0.0238
 1062CHOL    R3 9573   4.776  12.417   6.138  0.0878 -0.0560  0.1764
 1062CHOL    R4 9574   5.059  12.494   6.129  0.0039  0.2629 -0.0215
 1062CHOL    R5 9575   4.926  12.469   5.958 -0.0528 -0.0423  0.0588
 1062CHOL    C1 9576   5.196  12.214   5.870  0.2006  0.1819  0.1677
 1062CHOL    C2 9577   5.501  11.919   6.010  0.1379 -0.2539  0.0977
 1063PNCE   AM1 9578  13.981  10.515   4.300 -0.1604 -0.1446  0.1233
 1063PNCE   AM2 9579  13.740  10.213   4.393 -0.0683 -0.0267  0.1108
 1063PNCE   T1A 9580  14.013  10.732   4.693 -0.1996 -0.0056  0.2258
 1063PNCE   C2A 9581  14.098  10.706   5.080  0.3177 -0.0526  0.0757
 1063PNCE   C3A 9582  14.255  10.408   5.295  0.1548 -0.1015  0.1312
 1063PNCE   C1B 9583  13.887  10.273   4.845  0.1761  0.2543 -0.0450
 1063PNCE   C2B 9584  13.892  10.075   5.205 -0.1481 -0.1097  0.0905
 1063PNCE   C3B 9585  13.863   9.858   5.639 -0.3419 -0.1753  0.2452
 1063PNCE   D4B 9586  14.064   9.704   5.967  0.0314 -0.0418  0.0126
 1063PNCE   C5B 9587  14.270   9.674   6.318 -0.2141 -0.1121 -0.2428
 1063PNCE   C6B 9588  14.559   9.734   6.592  0.0763 -0.3100  0.0153
 1064CHOL   ROH 9589  12.327   5.282   6.410  0.2517  0.1093  0.0634
 1064CHOL    R1 9590  12.243   5.016   6.364  0.3911  0.0851 -0.0520
 1064CHOL    R2 9591  12.420   4.806   6.330  0.5023  0.1314  0.2556
 1064CHOL    R3 9592  12.277   4.695   6.532  0.1967  0.1078  0.0368
 1064CHOL    R4 9593  12.398   4.467   6.393  0.5555  0.1319  0.2875
 1064CHOL    R5 9594  12.187   4.494   6.438  0.4537  0.0423 -0.0856
 1064CHOL    C1 9595  12.252   4.165   6.620  0.2997  0.1101  0.1008
 1064CHOL    C2 9596  12.529   3.805   6.630 -0.0701 -0.1503 -0.3490
 1065PNCE   AM1 9597   8.669  12.767   5.004  0.1696  0.2851  0.0297
 1065PNCE   AM2 9598   8.724  12.489   4.773 -0.0213  0.1672 -0.0467
 1065PNCE   T1A 9599   8.690  12.871   5.430  0.1467 -0.2520 -0.1473
 1065PNCE   C2A 9600   8.466  13.158   5.694 -0.0609 -0.1715 -0.1365
 1065PNCE   C3A 9601   8.208  13.147   6.074 -0.2949 -0.0868  0.1395
 1065PNCE   C1B 9602   9.213  12.496   4.987 -0.0197  0.1545 -0.2927
 1065PNCE   C2B 9603   9.416  12.528   5.312 -0.2647 -0.0581 -0.1152
 1065PNCE   C3B 9604   9.655  12.393   5.560 -0.0129 -0.0863  0.0801
 1065PNCE   D4B 9605   9.847  12.442   6.027 -0.1257  0.0210  0.1131
 1065PNCE   C5B 9606   9.509  12.547   6.294 -0.0051  0.0439  0.2006
 1065PNCE   C6B 9607   9.409  12.603   6.751 -0.0687 -0.2209  0.0368
 1066XCA    COO 9608   7.411  13.551   8.215  0.1071 -0.0145 -0.2137
 1066XCA     C1 9609   7.500  13.558   7.763 -0.1608 -0.2634  0.0485
 1066XCA     C2 9610   7.848  13.810   7.654  0.0382 -0.1614  0.2477
 1066XCA     C3 9611   7.756  14.229   7.460  0.3835  0.3696 -0.0886
 1066XCA     C4 9612   7.630  14.607   7.220  0.0681  0.1523 -0.3414
 1066XCA     C5 9613   7.411  14.671   6.873  0.1814 -0.2036  0.1976
 1066XCA     C6 9614   7.258  14.745   6.503 -0.2839  0.5716 -0.0821
 1067PNCE   AM1 9615   2.848   2.372   4.755 -0.2962  0.0839  0.0380
 1067PNCE   AM2 9616   2.424   2.374   4.874  0.0882 -0.3006  0.0836
 1067PNCE   T1A 9617   2.781   2.403   5.296 -0.1149  0.0042 -0.0740
 1067PNCE   C2A 9618   2.795   2.200   5.799  0.0325  0.1369 -0.0827
 1067PNCE   C3A 9619   2.624   2.131   6.339 -0.1654 -0.4515  0.2714
 1067PNCE   C1B 9620   2.304   2.365   5.423  0.0977  0.2237 -0.0066
 1067PNCE   C2B 9621   2.306   2.270   5.892  0.0981 -0.1518  0.0337
 1067PNCE   C3B 9622   2.115   2.043   6.259  0.2865 -0.0566  0.1393
 1067PNCE   D4B 9623   2.282   1.961   6.716  0.0975 -0.3994  0.1430
 1067PNCE   C5B 9624   2.186   1.551   6.742 -0.1989  0.3350 -0.0059
 1067PNCE   C6B 9625   1.963   1.178   6.511  0.3143 -0.0154  0.0934
 1068PNCE   AM1 9626   4.450   3.910   5.136 -0.0493 -0.0960  0.1013
 1068PNCE   AM2 9627   4.325   3.685   5.065  0.1422  0.3690  0.0241
 1068PNCE   T1A 9628   4.143   4.036   5.389 -0.0295 -0.1315 -0.0281
 1068PNCE   C2A 9629   3.968   4.387   5.683  0.3814  0.2693 -0.0155
 1068PNCE   C3A 9630   3.739   4.342   6.104 -0.1546 -0.0819 -0.1178
 1068PNCE   C1B 9631   4.063   3.564   5.426 -0.1396 -0.2680 -0.0514
 1068PNCE   C2B 9632   3.953   3.272   5.771  0.3117 -0.3476  0.0941
 1068PNCE   C3B 9633   3.958   3.280   6.231  0.0487 -0.0057 -0.1344
 1068PNCE   D4B 9634   3.973   2.896   6.490  0.0689  0.1657 -0.0704
 1068PNCE   C5B 9635   3.929   2.621   6.342  0.3079 -0.0118  0.0747
 1068PNCE   C6B 9636   3.705   2.388   6.066  0.0936  0.0861  0.2220
 1069PNCE   AM1 9637   9.080   6.443   4.324  0.2591 -0.1310 -0.0028
 1069PNCE   AM2 9638   9.094   6.758   4.454 -0.2290 -0.1563  0.0169
 1069PNCE   T1A 9639   9.025   6.018   4.565 -0.0751  0.1300  0.0146
 1069PNCE   C2A 9640   9.007   5.775   4.858 -0.0740  0.1164 -0.1295
 1069PNCE   C3A 9641   8.859   5.398   5.164 -0.4065 -0.1590  0.0104
 1069PNCE   C1B 9642   9.192   6.602   4.937  0.3174 -0.0845 -0.2924
 1069PNCE   C2B 9643   9.094   6.651   5.472  0.0249  0.5230  0.2657
 1069PNCE   C3B 9644   9.125   6.829   5.811 -0.0160 -0.1334  0.1961
 1069PNCE   D4B 9645   9.112   7.128   6.057 -0.2037  0.0621 -0.2251
 1069PNCE   C5B 9646   8.827   6.967   6.344  0.1565  0.0751  0.1585
 1069PNCE   C6B 9647   8.617   7.073   6.698 -0.0698 -0.1004  0.0696
 1070PNCE   AM1 9648   7.767  12.940   5.253 -0.1417  0.0621  0.2179
 1070PNCE   AM2 9649   7.564  12.874   4.978  0.1406 -0.1383  0.0257
 1070PNCE   T1A 9650   7.675  12.665   5.586  0.0845  0.1381 -0.1334
 1070PNCE   C2A 9651   7.444  12.535   6.014  0.0814  0.4322  0.0171
 1070PNCE   C3A 9652   7.420  12.781   6.388 -0.0491  0.0658 -0.0299
 1070PNCE   C1B 9653   7.223  12.991   5.370  0.0364  0.0708  0.1080
 1070PNCE   C2B 9654   6.903  12.829   5.613  0.2881  0.2377 -0.3355
 1070PNCE   C3B 9655   6.440  12.811   5.840  0.6191  0.0808 -0.3690
 1070PNCE   D4B 9656   6.363  12.754   6.189 -0.0414  0.2175 -0.2674
 1070PNCE   C5B 9657   6.161  12.895   6.553  0.3050  0.0530 -0.2719
 1070PNCE   C6B 9658   6.027  13.128   6.825  0.0428 -0.0525 -0.0125
 1071CHOL   ROH 9659  10.057   0.043   7.565 -0.0420  0.0151  0.1556
 1071CHOL    R1 9660  10.297   0.010   7.419 -0.0381  0.0400  0.1573
 1071CHOL    R2 9661  10.431  -0.231   7.405 -0.0525  0.0379  0.1002
 1071CHOL    R3 9662  10.410  -0.191   7.137 -0.0359  0.1079  0.1087
 1071CHOL    R4 9663  10.510  -0.465   7.163 -0.2408  0.0215  0.0521
 1071CHOL    R5 9664  10.599  -0.305   7.044 -0.1236 -0.0193  0.0784
 1071CHOL    C1 9665  10.536  -0.563   6.771 -0.3347  0.0777  0.0319
 1071CHOL    C2 9666  10.563  -1.002   6.774 -0.0654  0.1082 -0.1320
 1072PNCE   AM1 9667   9.431  15.880   5.453  0.3505  0.0489  0.1651
 1072PNCE   AM2 9668   9.212  15.616   5.456 -0.2102  0.1617  0.0942
 1072PNCE   T1A 9669   9.653  15.579   5.746 -0.6357 -0.1962  0.1874
 1072PNCE   C2A 9670   9.954  15.465   6.031 -0.1398 -0.1102 -0.0566
 1072PNCE   C3A 9671  10.180  15.712   6.200 -0.0542 -0.0771 -0.4634
 1072PNCE   C1B 9672   9.244  15.360   5.750  0.0900 -0.0850 -0.0748
 1072PNCE   C2B 9673   9.203  15.198   6.204 -0.0457 -0.2411  0.2009
 1072PNCE   C3B 9674   9.125  15.456   6.569  0.2202  0.2397 -0.2229
 1072PNCE   D4B 9675   9.350  15.591   6.869 -0.0409  0.1810  0.0410
 1072PNCE   C5B 9676   9.795  15.839   7.027 -0.1002  0.2317  0.0582
 1072PNCE   C6B 9677  10.227  16.098   7.010 -0.0162 -0.1474 -0.0189
 1073XCA    COO 9678   3.485   2.033   4.749  0.0123  0.0302  0.0789
 1073XCA     C1 9679   3.181   2.041   5.013 -0.1409 -0.1449 -0.0458
 1073XCA     C2 9680   3.165   1.985   5.451 -0.0612 -0.1137 -0.2966
 1073XCA     C3 9681   3.315   1.919   5.899 -0.0991 -0.1413 -0.0524
 1073XCA     C4 9682   3.483   1.987   6.310  0.2552  0.0090  0.1310
 1073XCA     C5 9683   3.590   2.327   6.573 -0.3564 -0.3972 -0.0878
 1073XCA     C6 9684   3.894   2.411   6.866  0.1386  0.1421 -0.1592
 1074XCA    COO 9685   5.832  14.134   8.667  0.2531  0.1506 -0.2321
 1074XCA     C1 9686   5.480  13.886   8.537  0.2083  0.1057  0.1473
 1074XCA     C2 9687   5.197  13.699   8.260 -0.0090  0.0625 -0.0823
 1074XCA     C3 9688   5.160  13.545   7.817 -0.0025 -0.2942  0.0554
 1074XCA     C4 9689   4.984  13.600   7.430  0.1219  0.0825 -0.0543
 1074XCA     C5 9690   5.262  13.510   7.084  0.1269  0.1017 -0.0216
 1074XCA     C6 9691   5.705  13.518   6.990  0.0634  0.0838 -0.1682
 1075XCA    COO 9692  14.963  10.912   4.633  0.0466  0.2458  0.0365
 1075XCA     C1 9693  14.991  11.161   5.108 -0.0369 -0.0777 -0.0041
 1075XCA     C2 9694  15.055  10.759   5.433  0.1579 -0.2192 -0.0066
 1075XCA     C3 9695  15.076  10.668   5.781 -0.0081 -0.0984 -0.0995
 1075XCA     C4 9696  15.346  10.429   6.160  0.0872  0.0009  0.0755
 1075XCA     C5 9697  15.786  10.377   6.449  0.0521 -0.2569  0.2741
 1075XCA     C6 9698  16.071  10.280   6.703 -0.0644 -0.0321  0.2676
 1076PNCE   AM1 9699  14.663   4.963   4.161  0.1815 -0.1768  0.0152
 1076PNCE   AM2 9700  14.891   4.875   4.097  0.2788 -0.1532  0.0172
 1076PNCE   T1A 9701  14.527   5.361   4.512 -0.4668  0.0483  0.0372
 1076PNCE   C2A 9702  14.494   5.557   4.899 -0.1473  0.1171 -0.1212
 1076PNCE   C3A 9703  14.841   5.780   4.953 -0.2636  0.3897 -0.1129
 1076PNCE   C1B 9704  14.998   4.874   4.546 -0.2027  0.0295 -0.1058
 1076PNCE   C2B 9705  14.928   5.116   4.989  0.0290  0.2056  0.2046
 1076PNCE   C3B 9706  14.810   5.270   5.463  0.1336  0.1709  0.2757
 1076PNCE   D4B 9707  14.510   5.426   5.860  0.1312 -0.2955 -0.1718
 1076PNCE   C5B 9708  14.687   5.253   6.160  0.2745  0.0205 -0.3502
 1076PNCE   C6B 9709  14.946   4.973   6.046 -0.0361 -0.1259  0.0703
 1077CHOL   ROH 9710   4.426  12.241   7.889  0.3091  0.0651 -0.3438
 1077CHOL    R1 9711   4.324  12.047   7.710  0.2793  0.0359 -0.2960
 1077CHOL    R2 9712   4.486  11.863   7.582  0.2308 -0.1522 -0.0998
 1077CHOL    R3 9713   4.314  11.683   7.693  0.0387  0.0308 -0.0960
 1077CHOL    R4 9714   4.399  11.559   7.442 -0.0461 -0.0951 -0.0575
 1077CHOL    R5 9715   4.194  11.593   7.507 -0.0221  0.1143 -0.0947
 1077CHOL    C1 9716   4.188  11.214   7.464 -0.3876  0.1100 -0.0292
 1077CHOL    C2 9717   4.334  11.216   7.173 -0.2251 -0.2148  0.4064
 1078CHOL   ROH 9718   4.238   3.387   8.937  0.0418 -0.0277  0.0392
 1078CHOL    R1 9719   4.082   3.209   8.782  0.1077 -0.0455 -0.0068
 1078CHOL    R2 9720   3.851   3.288   8.651  0.0089 -0.1247  0.1169
 1078CHOL    R3 9721   3.976   3.184   8.434  0.0071  0.0808  0.0144
 1078CHOL    R4 9722   3.724   3.290   8.330 -0.1416 -0.1193  0.1747
 1078CHOL    R5 9723   3.800   3.088   8.304  0.0391 -0.0363  0.0593
 1078CHOL    C1 9724   3.769   3.194   7.938 -0.2310  0.0768  0.1122
 1078CHOL    C2 9725   3.491   3.207   7.664  0.3116  0.0949 -0.1519
 1079XCA    COO 9726  10.103  15.206   5.286 -0.1961 -0.0119  0.1001
 1079XCA     C1 9727  10.257  15.396   5.670  0.0226  0.1080 -0.0275
 1079XCA     C2 9728  10.517  15.382   6.109 -0.0470 -0.2743  0.0768
 1079XCA     C3 9729  10.803  15.074   6.346  0.0375  0.0759  0.0448
 1079XCA     C4 9730  11.135  14.920   6.568  0.1629  0.1630  0.0948
 1079XCA     C5 9731  11.417  14.995   6.984  0.3511 -0.0443  0.0629
 1079XCA     C6 9732  11.228  15.078   7.292  0.0307  0.1783 -0.2451
 1080PNCE   AM1 9733  11.586   4.093   3.702 -0.0633  0.3329 -0.1523
 1080PNCE   AM2 9734  11.377   4.257   3.650  0.2349  0.1855 -0.0200
 1080PNCE   T1A 9735  11.768   4.172   4.116 -0.0661 -0.1793 -0.0796
 1080PNCE   C2A 9736  11.924   4.581   4.343 -0.0410 -0.1417 -0.2299
 1080PNCE   C3A 9737  11.874   4.671   4.780  0.1202 -0.3764  0.0332
 1080PNCE   C1B 9738  10.996   4.334   3.890 -0.1654  0.2872  0.1307
 1080PNCE   C2B 9739  10.969   4.542   4.289  0.0662 -0.0315  0.0099
 1080PNCE   C3B 9740  10.857   4.611   4.602 -0.0385 -0.0187  0.2596
 1080PNCE   D4B 9741  10.541   4.681   4.852  0.0217  0.1510  0.1541
 1080PNCE   C5B 9742  10.470   4.989   5.114 -0.0862 -0.0451  0.1515
 1080PNCE   C6B 9743  10.554   5.173   5.607 -0.1324  0.0150  0.0487
 1081CHOL   ROH 9744   7.898   9.059   7.779  0.2745  0.1088 -0.2254
 1081CHOL    R1 9745   7.930   9.311   7.652  0.1780  0.1239 -0.2217
 1081CHOL    R2 9746   8.087   9.345   7.427  0.1192  0.1776 -0.2583
 1081CHOL    R3 9747   7.859   9.452   7.324  0.0652  0.1179 -0.1993
 1081CHOL    R4 9748   8.072   9.552   7.150 -0.0171  0.1200 -0.2943
 1081CHOL    R5 9749   7.922   9.671   7.254  0.0003  0.1135 -0.2665
 1081CHOL    C1 9750   7.850   9.772   6.893 -0.1472  0.0305 -0.2599
 1081CHOL    C2 9751   7.611  10.108   6.969 -0.2540  0.1554  0.1280
 1082PNCE   AM1 9752  12.661   3.713   4.163 -0.0875  0.1419 -0.0939
 1082PNCE   AM2 9753  12.699   3.891   3.961 -0.2788 -0.1832  0.1965
 1082PNCE   T1A 9754  13.034   3.696   4.488  0.2695 -0.4649 -0.0436
 1082PNCE   C2A 9755  13.326   4.019   4.582  0.1196  0.0327  0.1002
 1082PNCE   C3A 9756  13.669   4.015   4.781 -0.2052  0.2136 -0.2413
 1082PNCE   C1B 9757  12.853   4.190   4.230 -0.1129 -0.1365  0.0599
 1082PNCE   C2B 9758  12.869   4.145   4.674 -0.0585 -0.2162 -0.0379
 1082PNCE   C3B 9759  12.912   3.782   4.957 -0.0453  0.1910  0.3141
 1082PNCE   D4B 9760  12.856   3.651   5.340 -0.1353  0.1480 -0.0434
 1082PNCE   C5B 9761  12.774   3.782   5.685 -0.1408  0.2933 -0.1299
 1082PNCE   C6B 9762  12.929   3.924   6.103 -0.1822  0.1488 -0.0578
 1083CHOL   ROH 9763   9.498   7.636   7.985  0.0244 -0.0216  0.0527
 1083CHOL    R1 9764   9.454   7.464   7.764 -0.0488 -0.0585  0.0935
 1083CHOL    R2 9765   9.201   7.400   7.672 -0.0799  0.1022  0.0453
 1083CHOL    R3 9766   9.300   7.489   7.435  0.0536 -0.0390  0.0484
 1083CHOL    R4 9767   9.118   7.272   7.362 -0.0988  0.0948  0.0551
 1083CHOL    R5 9768   9.326   7.291   7.303 -0.0717 -0.0895  0.1047
 1083CHOL    C1 9769   9.162   7.281   6.960  0.0154 -0.0421  0.0636
 1083CHOL    C2 9770   9.229   7.122   6.594  0.0617  0.0756 -0.4315
 1084XCA    COO 9771   0.906   0.079   8.571  0.0417 -0.0795  0.0743
 1084XCA     C1 9772   1.210   0.171   8.203 -0.2750  0.1174  0.0882
 1084XCA     C2 9773   1.309   0.237   7.731  0.0663 -0.0954  0.1254
 1084XCA     C3 9774   1.491   0.474   7.353  0.1826  0.0790  0.0844
 1084XCA     C4 9775   1.593   0.638   6.995  0.2947  0.1710 -0.2692
 1084XCA     C5 9776   1.458   0.704   6.574  0.1096 -0.2092  0.2082
 1084XCA     C6 9777   1.360   0.702   6.129 -0.0052  0.1143 -0.1680
 1085PNCE   AM1 9778   1.945  13.617   4.286 -0.2522  0.1450  0.1295
 1085PNCE   AM2 9779   1.997  13.292   4.342  0.1349 -0.0687  0.2349
 1085PNCE   T1A 9780   2.117  13.806   4.598 -0.1767  0.0679 -0.1481
 1085PNCE   C2A 9781   2.125  13.815   5.061  0.0516  0.0555 -0.2546
 1085PNCE   C3A 9782   2.215  13.802   5.538 -0.1240  0.0550  0.0772
 1085PNCE   C1B 9783   2.111  13.011   4.606  0.1389  0.2081  0.0436
 1085PNCE   C2B 9784   2.182  12.954   5.115  0.2933 -0.0405 -0.2340
 1085PNCE   C3B 9785   2.235  12.842   5.542 -0.0944  0.0840  0.0172
 1085PNCE   D4B 9786   2.347  12.647   5.824  0.0789  0.3004 -0.0924
 1085PNCE   C5B 9787   2.110  12.874   6.133 -0.0739 -0.2951 -0.1298
 1085PNCE   C6B 9788   1.833  13.050   6.402 -0.0637  0.1309 -0.1136
 1086PNCE   AM1 9789   6.664   3.253   4.766  0.0963 -0.1885  0.2932
 1086PNCE   AM2 9790   6.528   3.043   4.968  0.0621  0.0678 -0.0411
 1086PNCE   T1A 9791   6.662   3.525   5.074  0.0230 -0.3325  0.2821
 1086PNCE   C2A 9792   6.945   3.447   5.399 -0.2900  0.1404  0.1168
 1086PNCE   C3A 9793   7.084   3.695   5.740 -0.3226 -0.1585  0.0975
 1086PNCE   C1B 9794   6.402   3.064   5.409  0.1147 -0.2738  0.3819
 1086PNCE   C2B 9795   6.620   3.227   5.738  0.0160  0.4297 -0.0520
 1086PNCE   C3B 9796   6.649   3.604   6.068  0.1243 -0.1397  0.3381
 1086PNCE   D4B 9797   6.370   3.676   6.452 -0.2210 -0.2443  0.1831
 1086PNCE   C5B 9798   6.437   3.413   6.833 -0.1892  0.1129 -0.3810
 1086PNCE   C6B 9799   6.691   3.187   7.131 -0.1086 -0.0897  0.1005
 1087CHOL   ROH 9800   7.694  10.732   4.842  0.0999 -0.0349  0.0496
 1087CHOL    R1 9801   7.741  10.753   5.120  0.2562 -0.0918  0.0290
 1087CHOL    R2 9802   7.540  10.728   5.307  0.3045  0.1665  0.1246
 1087CHOL    R3 9803   7.705  10.538   5.411  0.1146 -0.0465  0.0445
 1087CHOL    R4 9804   7.638  10.712   5.638  0.3478 -0.0371  0.1029
 1087CHOL    R5 9805   7.838  10.657   5.571  0.2753 -0.2403  0.0551
 1087CHOL    C1 9806   7.850  10.525   5.929  0.1946 -0.3557  0.0151
 1087CHOL    C2 9807   7.951  10.763   6.215 -0.2501 -0.1976 -0.2518
 1088CHOL   ROH 9808   1.579   1.084   8.465  0.1177  0.1606  0.0100
 1088CHOL    R1 9809   1.738   1.252   8.302  0.1729  0.1286  0.0326
 1088CHOL    R2 9810   2.010   1.277   8.337  0.2017 -0.0931 -0.0674
 1088CHOL    R3 9811   2.018   1.210   8.073  0.0478  0.0449 -0.1100
 1088CHOL    R4 9812   2.279   1.334   8.126  0.2498 -0.3486 -0.0791
 1088CHOL    R5 9813   2.138   1.390   7.970  0.2875 -0.0535 -0.0246
 1088CHOL    C1 9814   2.443   1.303   7.757  0.1333 -0.3678 -0.1259
 1088CHOL    C2 9815   2.749   1.434   7.608 -0.2867 -0.0799  0.2953
 1089XCA    COO 9816   3.682   0.794   8.990 -0.0579  0.3248  0.0555
 1089XCA     C1 9817   3.677   0.541   8.638 -0.0328 -0.2256  0.1176
 1089XCA     C2 9818   3.783   0.360   8.296 -0.2552 -0.1794  0.2890
 1089XCA     C3 9819   3.874   0.397   7.823  0.1488  0.1514  0.1377
 1089XCA     C4 9820   3.970   0.442   7.477  0.0908 -0.0060 -0.1550
 1089XCA     C5 9821   4.280   0.671   7.222 -0.0272  0.0629 -0.1354
 1089XCA     C6 9822   4.323   0.828   6.819  0.1161 -0.1680  0.0563
 1090CHOL   ROH 9823   3.974  15.137   6.825  0.2209 -0.3102 -0.1657
 1090CHOL    R1 9824   4.127  15.361   6.745  0.0490 -0.1345 -0.0107
 1090CHOL    R2 9825   4.176  15.421   6.480  0.1571 -0.0209  0.0396
 1090CHOL    R3 9826   4.073  15.663   6.549 -0.1257 -0.1346  0.0327
 1090CHOL    R4 9827   4.254  15.720   6.325  0.3561  0.1547  0.4573
 1090CHOL    R5 9828   4.256  15.815   6.521 -0.1246 -0.0095  0.5642
 1090CHOL    C1 9829   4.202  16.121   6.298  0.2064  0.1501  0.6940
 1090CHOL    C2 9830   4.355  16.565   6.271 -0.0436 -0.0119 -0.0604
 1091XCA    COO 9831  13.245   1.014   4.429 -0.0723  0.2374  0.2212
 1091XCA     C1 9832  13.438   1.111   4.939 -0.0946 -0.1124  0.1488
 1091XCA     C2 9833  13.745   1.068   5.308 -0.2438 -0.2234 -0.0028
 1091XCA     C3 9834  13.995   0.812   5.607  0.2849 -0.2638  0.0967
 1091XCA     C4 9835  14.371   0.503   5.848 -0.0070  0.1037 -0.2081
 1091XCA     C5 9836  14.706   0.438   6.068  0.1256  0.3240  0.3912
 1091XCA     C6 9837  14.720   0.247   6.492  0.1422 -0.0516 -0.2100
 1092CHOL   ROH 9838  14.990  10.282   8.023 -0.1605 -0.2506 -0.1201
 1092CHOL    R1 9839  14.915  10.274   7.750 -0.1207 -0.1092 -0.1357
 1092CHOL    R2 9840  14.766  10.473   7.632 -0.1061 -0.0501 -0.0529
 1092CHOL    R3 9841  14.972  10.478   7.454 -0.0813  0.0468 -0.0225
 1092CHOL    R4 9842  14.730  10.493   7.288 -0.0623  0.1049 -0.0496
 1092CHOL    R5 9843  14.893  10.349   7.268 -0.0479  0.1251 -0.0932
 1092CHOL    C1 9844  14.902  10.509   6.922 -0.0138  0.2860 -0.0190
 1092CHOL    C2 9845  14.773  10.300   6.524  0.2662 -0.1389 -0.0513
 1093XCA    COO 9846   6.732   4.190   8.454 -0.1695  0.0936 -0.0380
 1093XCA     C1 9847   6.897   3.949   8.042 -0.1750  0.1290 -0.0361
 1093XCA     C2 9848   6.769   3.760   7.685 -0.1935 -0.0162 -0.2366
 1093XCA     C3 9849   6.390   3.803   7.298 -0.1621 -0.0571  0.1548
 1093XCA     C4 9850   6.062   4.000   6.957 -0.0933 -0.2567 -0.1720
 1093XCA     C5 9851   5.994   4.049   6.516  0.1529  0.1432  0.0444
 1093XCA     C6 9852   5.890   4.320   6.109 -0.0611  0.2266  0.0365
 1094PNCE   AM1 9853   9.807   6.705   4.332  0.2862 -0.1089  0.3252
 1094PNCE   AM2 9854  10.010   6.608   4.159 -0.1010  0.0101 -0.0520
 1094PNCE   T1A 9855   9.515   6.457   4.586  0.3274 -0.2995  0.0134
 1094PNCE   C2A 9856   9.518   6.039   4.742  0.1917  0.0794  0.3157
 1094PNCE   C3A 9857   9.738   5.849   5.128  0.4010  0.0709  0.0912
 1094PNCE   C1B 9858  10.293   6.523   4.518  0.1117  0.1339  0.1698
 1094PNCE   C2B 9859  10.523   6.684   4.816 -0.2854  0.0577  0.0880
 1094PNCE   C3B 9860  10.491   6.658   5.375 -0.0234 -0.1561 -0.1966
 1094PNCE   D4B 9861  10.473   7.012   5.689 -0.3699 -0.2042  0.0848
 1094PNCE   C5B 9862  10.034   7.166   5.734 -0.2182  0.0636  0.0195
 1094PNCE   C6B 9863   9.651   7.011   5.789 -0.4839  0.2182  0.0854
 1095XCA    COO 9864  11.564   7.605   3.953 -0.0988  0.2229 -0.2111
 1095XCA     C1 9865  11.953   7.666   4.008  0.2116  0.0994 -0.0824
 1095XCA     C2 9866  12.232   7.756   4.471 -0.0701  0.0567 -0.1257
 1095XCA     C3 9867  12.530   7.612   4.710 -0.0944 -0.1526  0.3128
 1095XCA     C4 9868  12.823   7.333   4.711 -0.1756  0.1557 -0.1251
 1095XCA     C5 9869  13.309   7.289   4.827  0.1734 -0.1730 -0.1274
 1095XCA     C6 9870  13.636   7.628   5.036  0.1116 -0.1941 -0.1723
 1096XCA    COO 9871   4.570   6.592   8.470 -0.1443  0.1122 -0.1002
 1096XCA     C1 9872   4.708   6.968   8.155 -0.1385 -0.2244  0.1356
 1096XCA     C2 9873   4.939   7.088   7.759  0.1926  0.1147  0.1891
 1096XCA     C3 9874   5.270   6.938   7.317 -0.1127  0.1960  0.3295
 1096XCA     C4 9875   5.704   6.721   7.316 -0.1142  0.0362  0.0343
 1096XCA     C5 9876   6.031   6.579   7.631 -0.3354  0.0151  0.1827
 1096XCA     C6 9877   6.068   6.464   8.061  0.3060 -0.2605  0.2460
 1097PNCE   AM1 9878   3.656   5.551   4.625 -0.0321  0.0264 -0.0199
 1097PNCE   AM2 9879   3.957   5.705   4.642  0.0941 -0.2767  0.1132
 1097PNCE   T1A 9880   3.397   5.361   4.920 -0.2277  0.0025  0.0631
 1097PNCE   C2A 9881   3.446   5.186   5.249 -0.0700 -0.2286  0.1149
 1097PNCE   C3A 9882   3.406   5.258   5.697  0.2569  0.1628 -0.0862
 1097PNCE   C1B 9883   4.041   5.995   4.975  0.4111  0.1232  0.2102
 1097PNCE   C2B 9884   4.368   6.170   5.269  0.1311 -0.1891  0.0147
 1097PNCE   C3B 9885   4.423   6.428   5.514 -0.3365 -0.2771 -0.3270
 1097PNCE   D4B 9886   4.647   6.767   5.638  0.1779  0.1225 -0.1106
 1097PNCE   C5B 9887   4.446   6.892   5.995 -0.2977 -0.1245 -0.1382
 1097PNCE   C6B 9888   4.132   6.821   6.258  0.0608  0.1291  0.1460
 1098PNCE   AM1 9889   0.000   2.861   4.597  0.2005 -0.3913  0.2134
 1098PNCE   AM2 9890  -0.127   3.136   4.436  0.1502  0.1279 -0.0502
 1098PNCE   T1A 9891  -0.066   3.228   4.970 -0.2740 -0.1674 -0.4172
 1098PNCE   C2A 9892  -0.056   3.536   5.261  0.0774  0.0163  0.2352
 1098PNCE   C3A 9893  -0.367   3.914   5.407  0.0501  0.0165 -0.0708
 1098PNCE   C1B 9894  -0.544   2.910   4.753 -0.1373  0.1769  0.2215
 1098PNCE   C2B 9895  -0.822   3.125   5.119 -0.0561 -0.0249 -0.1920
 1098PNCE   C3B 9896  -0.968   3.117   5.561 -0.1520 -0.1107 -0.2719
 1098PNCE   D4B 9897  -1.125   3.418   5.865 -0.2619  0.1526  0.0516
 1098PNCE   C5B 9898  -1.440   3.073   6.125 -0.0271  0.1951 -0.1929
 1098PNCE   C6B 9899  -1.621   2.735   6.297 -0.1325  0.1081 -0.0783
 1099PNCE   AM1 9900   5.954  14.942   5.041  0.0141 -0.1482 -0.0719
 1099PNCE   AM2 9901   6.063  14.750   5.348  0.3012  0.1466  0.2027
 1099PNCE   T1A 9902   5.710  15.035   5.416 -0.0928 -0.0444 -0.0918
 1099PNCE   C2A 9903   5.631  14.876   5.828 -0.0083  0.0616  0.0013
 1099PNCE   C3A 9904   5.499  14.541   5.963  0.3855 -0.2302 -0.1457
 1099PNCE   C1B 9905   6.155  14.801   5.767 -0.0193  0.1335  0.1566
 1099PNCE   C2B 9906   5.993  14.773   6.144  0.1859 -0.2417  0.2066
 1099PNCE   C3B 9907   5.679  14.984   6.327 -0.0006 -0.0401  0.1227
 1099PNCE   D4B 9908   5.485  15.069   6.722 -0.1730  0.0858  0.0247
 1099PNCE   C5B 9909   5.302  14.876   7.009  0.0211 -0.1566  0.1965
 1099PNCE   C6B 9910   4.906  14.680   7.056  0.0751 -0.2914  0.2566
 1100CHOL   ROH 9911   8.178   0.988   8.002 -0.0464 -0.1702 -0.0077
 1100CHOL    R1 9912   8.236   0.759   7.847 -0.0105 -0.1652 -0.0016
 1100CHOL    R2 9913   8.427   0.758   7.647  0.0120 -0.1498  0.0208
 1100CHOL    R3 9914   8.526   0.546   7.786  0.0131 -0.1430  0.0304
 1100CHOL    R4 9915   8.682   0.551   7.539  0.0846 -0.0883  0.0734
 1100CHOL    R5 9916   8.572   0.381   7.619  0.0938 -0.1184  0.0267
 1100CHOL    C1 9917   8.923   0.232   7.606  0.1281 -0.0460  0.1130
 1100CHOL    C2 9918   8.906  -0.064   7.398 -0.2227 -0.0624  0.1906
 1101XCA    COO 9919   3.961   6.536   4.932 -0.0812  0.2678  0.1158
 1101XCA     C1 9920   4.207   6.694   5.210  0.2029 -0.1085 -0.0052
 1101XCA     C2 9921   4.321   7.155   5.514  0.1982 -0.3398 -0.3120
 1101XCA     C3 9922   4.221   7.302   5.820  0.0768  0.0276  0.0226
 1101XCA     C4 9923   4.272   7.347   6.256 -0.2985  0.5050 -0.0825
 1101XCA     C5 9924   4.074   7.426   6.698  0.1608  0.0229  0.1113
 1101XCA     C6 9925   3.994   7.540   7.082 -0.0611 -0.0071 -0.3594
 1102PNCE   AM1 9926   1.241   1.313   4.703  0.0677 -0.2680 -0.0274
 1102PNCE   AM2 9927   1.017   1.211   4.889 -0.0497 -0.0397  0.0012
 1102PNCE   T1A 9928   1.343   1.463   5.107 -0.3166  0.0242 -0.1811
 1102PNCE   C2A 9929   1.485   1.669   5.479  0.3376 -0.3096 -0.0155
 1102PNCE   C3A 9930   1.461   2.128   5.645  0.0737 -0.0057 -0.1772
 1102PNCE   C1B 9931   0.949   1.160   5.358  0.0233  0.1863 -0.1640
 1102PNCE   C2B 9932   1.113   1.012   5.838  0.0916  0.0466  0.2413
 1102PNCE   C3B 9933   1.024   1.048   6.232  0.0373 -0.4727  0.0108
 1102PNCE   D4B 9934   0.962   1.320   6.596  0.3479  0.2708  0.3245
 1102PNCE   C5B 9935   0.826   1.207   7.068  0.0087  0.1383  0.3491
 1102PNCE   C6B 9936   0.736   1.085   7.406 -0.1830  0.2787  0.4671
 1103CHOL   ROH 9937  10.311  12.494   6.699  0.1175 -0.1022  0.1915
 1103CHOL    R1 9938  10.143  12.389   6.901  0.0007 -0.1281  0.0818
 1103CHOL    R2 9939   9.868  12.411   6.892  0.0060 -0.1404 -0.0811
 1103CHOL    R3 9940   9.878  12.141   6.921 -0.0018 -0.1426 -0.0979
 1103CHOL    R4 9941   9.595  12.209   6.955 -0.0157 -0.1389 -0.1693
 1103CHOL    R5 9942   9.718  12.094   7.093 -0.0509 -0.1507 -0.1420
 1103CHOL    C1 9943   9.445  11.838   7.019 -0.0357 -0.1399 -0.2363
 1103CHOL    C2 9944   9.097  11.630   7.047  0.4202  0.2011  0.0296
 1104XCA    COO 9945  15.859   2.311   5.171 -0.1879 -0.0155 -0.0421
 1104XCA     C1 9946  15.465   2.241   5.349  0.0939  0.0705  0.0659
 1104XCA     C2 9947  15.413   2.067   5.738 -0.0348 -0.0423  0.0861
 1104XCA     C3 9948  15.302   2.040   6.264  0.0207  0.2189  0.0184
 1104XCA     C4 9949  15.255   1.700   6.545  0.1313 -0.1384  0.2387
 1104XCA     C5 9950  15.508   1.286   6.591 -0.0540 -0.2018  0.0278
 1104XCA     C6 9951  15.256   0.952   6.692 -0.0898 -0.0998 -0.2072
 1105CHOL   ROH 9952   4.485   3.412   5.428 -0.1322 -0.1555  0.2027
 1105CHOL    R1 9953   4.539   3.576   5.652 -0.1570 -0.1356  0.1941
 1105CHOL    R2 9954   4.568   3.851   5.633 -0.0149 -0.1529  0.1499
 1105CHOL    R3 9955   4.375   3.852   5.824 -0.1043 -0.0199  0.0606
 1105CHOL    R4 9956   4.460   4.131   5.803  0.1362 -0.0861  0.1371
 1105CHOL    R5 9957   4.451   4.012   5.985 -0.0468 -0.1042  0.1177
 1105CHOL    C1 9958   4.216   4.296   6.081  0.1402  0.0777  0.0460
 1105CHOL    C2 9959   4.248   4.528   6.082 -0.0966  0.0768  0.1806
 1106PNCE   AM1 9960   0.921  11.619   4.314 -0.1397 -0.0559  0.2038
 1106PNCE   AM2 9961   0.537  11.570   4.391  0.5435  0.1296 -0.0650
 1106PNCE   T1A 9962   1.205  12.034   4.581 -0.1312 -0.1713  0.0423
 1106PNCE   C2A 9963   1.431  12.170   4.933  0.0446 -0.2152  0.0252
 1106PNCE   C3A 9964   1.305  12.124   5.359 -0.0896 -0.3801 -0.0370
 1106PNCE   C1B 9965   0.562  11.296   4.823 -0.0676  0.1302 -0.1931
 1106PNCE   C2B 9966   0.761  11.237   5.231 -0.1048  0.1289  0.1353
 1106PNCE   C3B 9967   0.770  11.081   5.672 -0.0566 -0.0424 -0.1224
 1106PNCE   D4B 9968   0.861  10.859   6.023 -0.0319 -0.1524  0.0360
 1106PNCE   C5B 9969   1.269  10.704   6.133  0.1451  0.3066  0.1611
 1106PNCE   C6B 9970   1.535  10.473   6.372 -0.0298  0.1515 -0.1203
 1107CHOL   ROH 9971   5.822   8.902   6.667 -0.3082 -0.2853 -0.2703
 1107CHOL    R1 9972   5.910   8.635   6.635 -0.0429 -0.1827 -0.4358
 1107CHOL    R2 9973   6.153   8.571   6.520  0.1861  0.1418 -0.1557
 1107CHOL    R3 9974   6.189   8.433   6.752 -0.0437 -0.0762 -0.2463
 1107CHOL    R4 9975   6.437   8.391   6.601  0.1647  0.1847  0.0181
 1107CHOL    R5 9976   6.309   8.236   6.686  0.1233  0.0420 -0.2965
 1107CHOL    C1 9977   6.635   8.156   6.865 -0.0635  0.0049  0.0343
 1107CHOL    C2 9978   6.913   7.974   6.918 -0.0150 -0.0827  0.1240
 1108CHOL   ROH 9979   2.983   9.602   6.342  0.1545  0.1178  0.2211
 1108CHOL    R1 9980   3.060   9.350   6.446  0.0905  0.0351  0.0715
 1108CHOL    R2 9981   2.907   9.212   6.630  0.1664  0.0725  0.1631
 1108CHOL    R3 9982   2.925   9.012   6.447 -0.1209  0.1183  0.0802
 1108CHOL    R4 9983   2.861   8.876   6.698  0.0838  0.0730  0.1104
 1108CHOL    R5 9984   3.027   8.831   6.565 -0.0760  0.0349 -0.0826
 1108CHOL    C1 9985   2.851   8.493   6.565 -0.2340  0.1162  0.0019
 1108CHOL    C2 9986   2.938   8.040   6.555  0.0100 -0.1332  0.0214
 1109CHOL   ROH 9987   5.254  14.430   7.357 -0.0056  0.0199 -0.1965
 1109CHOL    R1 9988   5.050  14.241   7.308 -0.0072  0.0003 -0.1173
 1109CHOL    R2 9989   4.930  14.212   7.061 -0.0674 -0.0438 -0.0834
 1109CHOL    R3 9990   5.003  13.952   7.092 -0.0444 -0.0348 -0.0626
 1109CHOL    R4 9991   4.784  13.945   6.898 -0.2738 -0.1025  0.1917
 1109CHOL    R5 9992   4.797  13.831   7.083 -0.0647 -0.0285  0.2256
 1109CHOL    C1 9993   4.767  13.545   6.832 -0.3723 -0.1282  0.3714
 1109CHOL    C2 9994   4.862  13.083   6.660  0.0219 -0.2055 -0.3108
 1110PNCE   AM1 9995   9.668  15.050   9.275  0.3593  0.2064 -0.1578
 1110PNCE   AM2 9996   9.504  15.261   9.153 -0.0105  0.1428 -0.0069
 1110PNCE   T1A 9997   9.855  14.934   8.867 -0.4428  0.3607 -0.3279
 1110PNCE   C2A 9998  10.103  14.738   8.521  0.0832 -0.0796  0.0912
 1110PNCE   C3A 9999  10.579  14.961   8.340 -0.1600  0.1078  0.1267
 1110PNCE   C1B10000   9.616  15.657   8.885  0.3100  0.0601 -0.0122
 1110PNCE   C2B10001   9.588  15.581   8.517  0.1438 -0.0883  0.0840
 1110PNCE   C3B10002   9.413  15.697   8.081  0.0223 -0.2351  0.0576
 1110PNCE   D4B10003   9.293  15.881   7.730 -0.3044 -0.0411 -0.0122
 1110PNCE   C5B10004   9.408  16.329   7.631  0.1348 -0.0533  0.0583
 1110PNCE   C6B10005   9.623  16.681   7.698 -0.0321  0.1602  0.3161
 1111XCA    COO10006  14.482   9.653   4.296 -0.1017  0.0584  0.1965
 1111XCA     C110007  14.169   9.865   4.590  0.2192 -0.2015  0.2121
 1111XCA     C210008  14.081   9.719   4.856  0.0375 -0.1382 -0.1207
 1111XCA     C310009  14.119   9.506   5.187  0.2033  0.0855  0.2235
 1111XCA     C410010  14.355   9.560   5.593  0.0332 -0.0954  0.1459
 1111XCA     C510011  14.694   9.706   5.831  0.1404  0.3379 -0.1406
 1111XCA     C610012  14.843   9.815   6.198  0.1140 -0.1813  0.0933
 1112CHOL   ROH10013   7.431   2.735   7.626  0.0580 -0.1538 -0.0359
 1112CHOL    R110014   7.523   2.744   7.358  0.1339 -0.0680 -0.0074
 1112CHOL    R210015   7.384   2.873   7.157  0.0725 -0.2006 -0.0522
 1112CHOL    R310016   7.620   3.003   7.121 -0.0371  0.0250  0.0228
 1112CHOL    R410017   7.549   2.903   6.855  0.1405 -0.0422 -0.0003
 1112CHOL    R510018   7.737   2.870   6.960  0.1408  0.1360  0.0579
 1112CHOL    C110019   7.866   3.042   6.645  0.0772  0.2619  0.1003
 1112CHOL    C210020   8.241   3.134   6.611 -0.0868  0.0296 -0.0630
 1113CHOL   ROH10021   8.825  11.476   5.212  0.0568  0.0451  0.0826
 1113CHOL    R110022   8.940  11.616   5.429  0.1688 -0.0411  0.0787
 1113CHOL    R210023   8.799  11.676   5.659  0.2153  0.0842  0.0698
 1113CHOL    R310024   9.006  11.550   5.781  0.1097 -0.0797  0.0841
 1113CHOL    R410025   8.874  11.702   5.995  0.1672 -0.0199  0.0894
 1113CHOL    R510026   9.086  11.709   5.942  0.1877 -0.1543  0.1261
 1113CHOL    C110027   9.113  11.598   6.306  0.0403 -0.2344  0.1143
 1113CHOL    C210028   9.413  11.717   6.487 -0.0250  0.2702 -0.2999
 1114XCA    COO10029   0.588   7.202   4.144 -0.4008  0.4144 -0.0989
 1114XCA     C110030   0.282   6.930   4.501  0.1768  0.1797  0.2409
 1114XCA     C210031  -0.030   6.869   4.872  0.1039  0.1952 -0.1847
 1114XCA     C310032  -0.292   6.758   5.226 -0.3624 -0.0570 -0.2064
 1114XCA     C410033  -0.471   6.820   5.657  0.1861  0.0560  0.2533
 1114XCA     C510034  -0.414   6.605   6.086  0.3610  0.1459 -0.0490
 1114XCA     C610035  -0.447   6.687   6.437 -0.2401 -0.3605 -0.0486
 1115CHOL   ROH10036   3.033  11.068   8.828  0.1194 -0.1280 -0.0995
 1115CHOL    R110037   3.052  10.912   8.593  0.0223 -0.1669 -0.0824
 1115CHOL    R210038   2.838  10.770   8.491 -0.1105  0.0710 -0.1482
 1115CHOL    R310039   2.895  10.909   8.265  0.1312 -0.0055 -0.1366
 1115CHOL    R410040   2.775  10.660   8.169 -0.1420  0.1372 -0.1648
 1115CHOL    R510041   2.967  10.743   8.108 -0.0211 -0.0980 -0.1075
 1115CHOL    C110042   2.793  10.727   7.770  0.0665  0.1040 -0.1634
 1115CHOL    C210043   2.652  10.547   7.506  0.1433 -0.1715 -0.0909
 1116XCA    COO10044   8.955  11.066   5.110  0.2775  0.0269 -0.1269
 1116XCA     C110045   9.024  11.145   5.517 -0.3214  0.2991  0.1892
 1116XCA     C210046   8.983  11.084   5.922  0.0135 -0.2046 -0.0320
 1116XCA     C310047   8.931  11.188   6.207 -0.1084 -0.0035  0.1774
 1116XCA     C410048   8.628  11.392   6.404 -0.2092  0.1735  0.0963
 1116XCA     C510049   8.658  11.682   6.808 -0.1628 -0.1639  0.1173
 1116XCA     C610050   8.986  12.050   6.770  0.1518 -0.0836  0.1755
 1117PNCE   AM110051  11.359  10.063   4.406 -0.4497 -0.0168  0.0344
 1117PNCE   AM210052  11.276   9.833   4.246  0.2286 -0.2562  0.0780
 1117PNCE   T1A10053  11.151   9.983   4.751  0.0293  0.0039  0.0192
 1117PNCE   C2A10054  10.887   9.739   5.061 -0.0916  0.2755  0.1304
 1117PNCE   C3A10055  10.723   9.260   4.944 -0.0677 -0.1476  0.2105
 1117PNCE   C1B10056  11.439   9.535   4.600 -0.1176 -0.0960  0.1338
 1117PNCE   C2B10057  11.189   9.298   4.933  0.3051  0.2220  0.3551
 1117PNCE   C3B10058  11.169   8.950   5.185  0.1588  0.0330  0.1145
 1117PNCE   D4B10059  11.024   8.558   5.032 -0.2915  0.0832  0.2305
 1117PNCE   C5B10060  10.551   8.456   5.212 -0.1906  0.2807  0.0015
 1117PNCE   C6B10061  10.156   8.760   5.049 -0.0709 -0.1740 -0.0726
 1118PNCE   AM110062   7.374   9.831   4.615 -0.1478  0.1095  0.0067
 1118PNCE   AM210063   7.516  10.072   4.698  0.0138  0.1523  0.4283
 1118PNCE   T1A10064   7.431   9.647   5.056  0.0943 -0.3513  0.1456
 1118PNCE   C2A10065   7.371   9.672   5.468 -0.2847 -0.1949  0.0011
 1118PNCE   C3A10066   7.249   9.388   5.783 -0.1432 -0.0058 -0.1973
 1118PNCE   C1B10067   7.565  10.135   5.126 -0.0337  0.2123 -0.1100
 1118PNCE   C2B10068   7.652  10.117   5.617 -0.1248 -0.0250  0.2180
 1118PNCE   C3B10069   7.492  10.052   5.951  0.2787  0.1671 -0.0439
 1118PNCE   D4B10070   7.179   9.941   6.187  0.3622 -0.0665 -0.3820
 1118PNCE   C5B10071   7.236   9.624   6.444  0.0117  0.1730  0.3022
 1118PNCE   C6B10072   7.353   9.460   6.810  0.0804 -0.1413  0.3617
 1119PNCE   AM110073   6.341   2.885   8.823 -0.3806  0.0256 -0.1717
 1119PNCE   AM210074   6.612   3.108   8.803 -0.1683 -0.0468 -0.4618
 1119PNCE   T1A10075   6.442   2.778   8.388 -0.1321  0.1413  0.0098
 1119PNCE   C2A10076   6.760   2.791   8.140 -0.0642  0.1143  0.1646
 1119PNCE   C3A10077   6.929   2.694   7.769 -0.2091  0.1082 -0.2721
 1119PNCE   C1B10078   6.898   2.759   8.600 -0.0299  0.2214  0.0025
 1119PNCE   C2B10079   7.234   2.582   8.303  0.1122 -0.0963 -0.1774
 1119PNCE   C3B10080   7.288   2.343   7.944  0.0585  0.2939  0.4147
 1119PNCE   D4B10081   7.387   2.256   7.551  0.1963 -0.2174  0.0292
 1119PNCE   C5B10082   7.712   1.932   7.407  0.1166  0.0828  0.1128
 1119PNCE   C6B10083   7.985   1.999   7.054 -0.3157  0.0833  0.2032
 1120PNCE   AM110084  12.038  12.388   5.083  0.0607 -0.0700 -0.1577
 1120PNCE   AM210085  11.987  12.087   5.178  0.1850 -0.0225 -0.0293
 1120PNCE   T1A10086  11.925  12.622   5.458  0.0382 -0.1733  0.2147
 1120PNCE   C2A10087  12.037  12.659   5.852 -0.3134  0.2167 -0.2312
 1120PNCE   C3A10088  12.028  12.796   6.313 -0.2573 -0.2315 -0.0819
 1120PNCE   C1B10089  12.148  12.108   5.482  0.3072 -0.3807 -0.3091
 1120PNCE   C2B10090  12.332  12.238   5.851  0.1839  0.0489 -0.1742
 1120PNCE   C3B10091  12.421  12.443   6.215 -0.0973 -0.1908  0.1894
 1120PNCE   D4B10092  12.541  12.665   6.582  0.0629  0.0526 -0.0005
 1120PNCE   C5B10093  12.481  13.085   6.604 -0.1039 -0.1707  0.1974
 1120PNCE   C6B10094  12.613  13.437   6.352 -0.0245 -0.4604 -0.2339
 1121PNCE   AM110095   2.058   2.848   5.032  0.4021 -0.0297  0.0025
 1121PNCE   AM210096   2.335   2.845   5.139 -0.2661 -0.1596  0.0213
 1121PNCE   T1A10097   1.638   2.826   5.256 -0.0430  0.1591 -0.0120
 1121PNCE   C2A10098   1.359   2.673   5.647 -0.4743 -0.0796 -0.1172
 1121PNCE   C3A10099   1.280   2.662   6.012 -0.2490  0.0263 -0.0864
 1121PNCE   C1B10100   2.079   2.962   5.516  0.0300 -0.2957  0.0185
 1121PNCE   C2B10101   2.179   2.865   5.921 -0.1722  0.0704  0.1205
 1121PNCE   C3B10102   2.244   2.639   6.248 -0.0650  0.0271  0.1725
 1121PNCE   D4B10103   2.486   2.475   6.684  0.2535  0.4693 -0.2523
 1121PNCE   C5B10104   2.375   2.351   7.049  0.0617 -0.0947 -0.0731
 1121PNCE   C6B10105   2.610   2.259   7.381  0.1559  0.3199  0.0857
 1122CHOL   ROH10106   8.205   8.537   8.016 -0.0782  0.0854 -0.2142
 1122CHOL    R110107   8.183   8.593   7.739 -0.0432  0.0104 -0.2318
 1122CHOL    R210108   8.260   8.414   7.544  0.1393  0.0232 -0.1702
 1122CHOL    R310109   8.006   8.453   7.454  0.1341 -0.1773 -0.2522
 1122CHOL    R410110   8.155   8.358   7.219  0.2905 -0.0469 -0.2089
 1122CHOL    R510111   8.035   8.539   7.232  0.1379 -0.1423 -0.2390
 1122CHOL    C110112   7.856   8.362   6.946  0.3738 -0.2760 -0.3085
 1122CHOL    C210113   7.568   8.174   6.793 -0.1296 -0.3559 -0.2593
 1123CHOL   ROH10114   1.617  14.766   4.867 -0.0774 -0.2969  0.0446
 1123CHOL    R110115   1.677  14.889   5.115  0.0587 -0.2479 -0.0117
 1123CHOL    R210116   1.506  14.877   5.332  0.0598  0.0112  0.0063
 1123CHOL    R310117   1.726  14.780   5.459 -0.0248 -0.1500  0.0318
 1123CHOL    R410118   1.567  14.902   5.672  0.0629  0.0131  0.0056
 1123CHOL    R510119   1.776  14.943   5.627  0.0999 -0.1641  0.0097
 1123CHOL    C110120   1.808  14.825   5.988 -0.0147 -0.1372  0.0290
 1123CHOL    C210121   1.735  15.155   6.151  0.3363  0.2621  0.0409
 1124XCA    COO10122  10.009  14.098   5.178 -0.0313 -0.1282 -0.1595
 1124XCA     C110123  10.255  14.305   5.521  0.3593 -0.0502 -0.0970
 1124XCA     C210124  10.231  14.236   5.939  0.2881  0.2080  0.1242
 1124XCA     C310125  10.295  14.356   6.325  0.3300  0.0697 -0.2083
 1124XCA     C410126  10.261  14.307   6.786 -0.1538 -0.1699  0.0834
 1124XCA     C510127   9.868  14.285   7.009 -0.1810  0.0667  0.1023
 1124XCA     C610128   9.548  14.097   7.087  0.0409 -0.0779  0.1086
 1125CHOL   ROH10129   2.236   0.411   8.926  0.0890  0.0678 -0.0537
 1125CHOL    R110130   2.105   0.470   8.682  0.0496 -0.0552 -0.0629
 1125CHOL    R210131   2.086   0.727   8.582 -0.0969 -0.0860 -0.1146
 1125CHOL    R310132   2.197   0.615   8.361 -0.0394 -0.0687 -0.0948
 1125CHOL    R410133   2.024   0.829   8.258 -0.1869 -0.2059 -0.1360
 1125CHOL    R510134   2.021   0.619   8.198 -0.0545 -0.2236 -0.0840
 1125CHOL    C110135   2.092   0.783   7.861 -0.1854 -0.2594 -0.1300
 1125CHOL    C210136   2.035   1.156   7.577  0.0949 -0.1960 -0.1764
 1126PNCE   AM110137   8.724  13.131   8.229 -0.0280 -0.3365  0.1586
 1126PNCE   AM210138   8.786  13.479   8.154  0.2159 -0.0043 -0.0972
 1126PNCE   T1A10139   8.676  13.115   7.819  0.0103 -0.0729  0.0166
 1126PNCE   C2A10140   8.398  13.128   7.517 -0.2290  0.0898  0.0466
 1126PNCE   C3A10141   8.048  13.055   7.187  0.1812  0.0215 -0.2797
 1126PNCE   C1B10142   8.983  13.548   7.808 -0.1972 -0.1238  0.2347
 1126PNCE   C2B10143   8.913  13.341   7.464 -0.2561 -0.0335 -0.0839
 1126PNCE   C3B10144   8.949  12.957   7.365  0.1125  0.3168  0.3171
 1126PNCE   D4B10145   8.868  12.716   7.513  0.3602  0.1927 -0.2106
 1126PNCE   C5B10146   8.665  12.390   7.441  0.0311  0.3492  0.4247
 1126PNCE   C6B10147   8.679  12.065   7.136  0.1238  0.0603  0.0519
 1127CHOL   ROH10148   1.049  13.190   5.832 -0.0815  0.0620 -0.1115
 1127CHOL    R110149   0.963  12.959   5.971  0.0495 -0.0335 -0.1869
 1127CHOL    R210150   1.092  12.715   5.948  0.3017  0.0877 -0.1256
 1127CHOL    R310151   1.104  12.732   6.219  0.1097  0.0815 -0.1155
 1127CHOL    R410152   1.172  12.453   6.158 -0.1226  0.0114 -0.0498
 1127CHOL    R510153   1.017  12.522   6.295 -0.1600  0.1702 -0.1723
 1127CHOL    C110154   1.231  12.316   6.535 -0.5498 -0.0389  0.0038
 1127CHOL    C210155   1.542  12.082   6.689 -0.0372  0.0499 -0.3834
 1128PNCE   AM110156   6.440   7.231   4.689 -0.0254  0.0261 -0.0468
 1128PNCE   AM210157   6.563   7.058   4.585  0.0870  0.2551  0.0572
 1128PNCE   T1A10158   6.142   6.983   4.956 -0.0069  0.1460  0.1230
 1128PNCE   C2A10159   5.971   6.945   5.327  0.2025 -0.2286  0.1752
 1128PNCE   C3A10160   5.638   6.830   5.565  0.0363  0.3038 -0.1393
 1128PNCE   C1B10161   6.663   6.915   5.046  0.1087 -0.1520 -0.0453
 1128PNCE   C2B10162   6.489   7.054   5.494 -0.2748 -0.2226 -0.0833
 1128PNCE   C3B10163   6.225   6.855   5.811 -0.0165  0.1755 -0.2126
 1128PNCE   D4B10164   6.169   6.751   6.229 -0.0675 -0.2981 -0.1102
 1128PNCE   C5B10165   6.251   6.382   6.247 -0.3129 -0.0510 -0.0886
 1128PNCE   C6B10166   6.575   6.125   6.322  0.2879 -0.2363  0.1068
 1129CHOL   ROH10167  13.362  14.953   8.576 -0.1330  0.0004 -0.0973
 1129CHOL    R110168  13.420  14.950   8.299 -0.0375 -0.0581 -0.0786
 1129CHOL    R210169  13.247  15.054   8.109 -0.0183 -0.1801 -0.1730
 1129CHOL    R310170  13.465  15.198   8.036 -0.0489 -0.1148 -0.1317
 1129CHOL    R410171  13.290  15.204   7.801 -0.0138 -0.1280 -0.1461
 1129CHOL    R510172  13.498  15.142   7.805 -0.0042 -0.0722 -0.1308
 1129CHOL    C110173  13.519  15.428   7.553 -0.0398 -0.0366 -0.0915
 1129CHOL    C210174  13.502  15.576   7.211 -0.0883 -0.0287  0.0230
 1130PNCE   AM110175  14.971   3.808   4.357 -0.0121  0.0371  0.0645
 1130PNCE   AM210176  15.208   4.083   4.499 -0.2381 -0.1879  0.1372
 1130PNCE   T1A10177  14.807   4.030   4.831  0.1358  0.0738 -0.0823
 1130PNCE   C2A10178  14.507   3.961   5.142  0.1692  0.1654 -0.2677
 1130PNCE   C3A10179  14.382   3.667   5.648 -0.1730 -0.1738  0.2426
 1130PNCE   C1B10180  15.338   4.102   4.955 -0.1256  0.0131  0.2692
 1130PNCE   C2B10181  15.000   4.129   5.305  0.0444 -0.0539 -0.2523
 1130PNCE   C3B10182  14.708   4.402   5.572 -0.1432  0.0806  0.0160
 1130PNCE   D4B10183  14.327   4.227   5.582  0.1516  0.2550 -0.0626
 1130PNCE   C5B10184  13.924   4.369   5.627 -0.0029  0.1796  0.2046
 1130PNCE   C6B10185  13.568   4.507   5.698  0.4152  0.0928  0.0469
 1131PNCE   AM110186  10.313  12.947   4.784  0.2945  0.0164  0.1371
 1131PNCE   AM210187  10.167  12.684   4.614  0.0079 -0.1366  0.0429
 1131PNCE   T1A10188  10.564  12.698   5.005 -0.2209 -0.4166  0.5000
 1131PNCE   C2A10189  10.562  12.532   5.451 -0.1683  0.0921  0.1291
 1131PNCE   C3A10190  10.868  12.608   5.780 -0.2746 -0.3761  0.0216
 1131PNCE   C1B10191   9.919  12.652   4.974 -0.0110  0.3549  0.2255
 1131PNCE   C2B10192  10.098  12.663   5.333  0.2993  0.1263  0.3023
 1131PNCE   C3B10193  10.220  12.772   5.869 -0.3276 -0.0986  0.1736
 1131PNCE   D4B10194  10.402  12.689   6.242 -0.0336 -0.0475  0.0735
 1131PNCE   C5B10195  10.300  13.023   6.651  0.2788 -0.2227  0.0640
 1131PNCE   C6B10196   9.947  13.337   6.702 -0.0500 -0.2300 -0.1215
 1132PNCE   AM110197  10.204   4.679   7.989  0.0943  0.0895 -0.1174
 1132PNCE   AM210198   9.877   4.686   8.149  0.0515  0.1437 -0.2345
 1132PNCE   T1A10199  10.323   4.471   7.545 -0.0385  0.0172 -0.0000
 1132PNCE   C2A10200  10.447   4.112   7.408  0.2111 -0.2604  0.0442
 1132PNCE   C3A10201  10.538   3.731   7.276 -0.2527 -0.3301 -0.0331
 1132PNCE   C1B10202   9.831   4.382   7.784 -0.1556  0.0942 -0.3816
 1132PNCE   C2B10203   9.855   4.372   7.391  0.2186  0.3928  0.2142
 1132PNCE   C3B10204   9.885   4.452   6.945  0.3404 -0.0736 -0.2559
 1132PNCE   D4B10205   9.839   4.198   6.569  0.2630  0.2019  0.1149
 1132PNCE   C5B10206  10.171   3.976   6.371 -0.2458 -0.0953 -0.3506
 1132PNCE   C6B10207  10.394   3.888   6.064  0.1857  0.0574  0.0640
 1133PNCE   AM110208   5.629   8.477   4.675  0.0164  0.2406 -0.0360
 1133PNCE   AM210209   5.761   8.879   4.764  0.2813 -0.0236 -0.1747
 1133PNCE   T1A10210   5.790   8.351   5.059  0.1900  0.0003  0.0753
 1133PNCE   C2A10211   5.912   8.341   5.460  0.1751  0.2534 -0.2105
 1133PNCE   C3A10212   5.944   8.045   5.831  0.0499 -0.1582  0.0200
 1133PNCE   C1B10213   5.588   8.814   5.055  0.0255  0.1278 -0.3612
 1133PNCE   C2B10214   5.578   8.697   5.450  0.0965 -0.0777  0.0362
 1133PNCE   C3B10215   5.629   8.509   5.917 -0.0008  0.4557  0.0865
 1133PNCE   D4B10216   5.610   8.644   6.350  0.1500  0.1962 -0.2957
 1133PNCE   C5B10217   5.378   8.533   6.685  0.0722 -0.1898  0.1129
 1133PNCE   C6B10218   5.228   8.331   7.022  0.0267  0.2152  0.1202
 1134PNCE   AM110219   3.254   6.994   5.064  0.1305  0.2451  0.2507
 1134PNCE   AM210220   3.595   6.930   5.096  0.0542 -0.2045  0.0017
 1134PNCE   T1A10221   2.932   7.175   5.172 -0.0020  0.0339 -0.0075
 1134PNCE   C2A10222   2.922   7.555   5.251 -0.2855 -0.0915 -0.1028
 1134PNCE   C3A10223   2.874   7.780   5.605 -0.1957  0.0515  0.0897
 1134PNCE   C1B10224   3.711   7.034   5.497  0.2417 -0.0220  0.0379
 1134PNCE   C2B10225   3.672   6.921   5.919  0.2201 -0.1162 -0.1867
 1134PNCE   C3B10226   3.510   6.764   6.336 -0.4207  0.2779 -0.1221
 1134PNCE   D4B10227   3.302   6.966   6.791 -0.1123  0.1346  0.1192
 1134PNCE   C5B10228   2.927   6.818   6.986 -0.1769 -0.2458  0.0974
 1134PNCE   C6B10229   2.699   6.486   7.077  0.0160 -0.1125  0.0339
 1135CHOL   ROH10230   4.652   0.971   5.039  0.0326  0.0785  0.0190
 1135CHOL    R110231   4.594   1.020   5.312  0.0261 -0.0100  0.0346
 1135CHOL    R210232   4.526   0.818   5.488 -0.0118 -0.0652 -0.0377
 1135CHOL    R310233   4.732   0.919   5.633 -0.0030 -0.1452  0.0048
 1135CHOL    R410234   4.561   0.785   5.830 -0.2267  0.1392  0.0059
 1135CHOL    R510235   4.630   0.992   5.838 -0.0520  0.0838 -0.0995
 1135CHOL    C110236   4.775   0.861   6.166 -0.3437  0.1831  0.0711
 1135CHOL    C210237   4.801   0.915   6.556  0.1848 -0.0314  0.1668
 1136PNCE   AM110238   9.149   8.765   4.595  0.0777 -0.1637 -0.0873
 1136PNCE   AM210239   8.918   8.870   4.767 -0.2086 -0.1121 -0.2190
 1136PNCE   T1A10240   9.504   8.917   4.939  0.0987  0.2847  0.2505
 1136PNCE   C2A10241   9.678   8.749   5.322 -0.1167  0.1895  0.0249
 1136PNCE   C3A10242   9.865   8.560   5.697 -0.5549 -0.0426  0.1787
 1136PNCE   C1B10243   8.708   8.692   5.209  0.1470 -0.0061  0.0965
 1136PNCE   C2B10244   8.458   8.703   5.677  0.0058 -0.0278 -0.1131
 1136PNCE   C3B10245   8.507   8.787   6.105  0.3226  0.2882 -0.1342
 1136PNCE   D4B10246   8.766   9.077   6.217 -0.0541 -0.0455  0.1508
 1136PNCE   C5B10247   8.880   9.291   6.508  0.2685  0.0774  0.0817
 1136PNCE   C6B10248   8.979   9.230   6.976 -0.3364  0.1061  0.2626
 1137CHOL   ROH10249  11.122   4.629   3.608  0.1024 -0.1209  0.0654
 1137CHOL    R110250  11.241   4.817   3.784  0.0133  0.0745 -0.0785
 1137CHOL    R210251  11.172   5.084   3.786 -0.3671 -0.0186 -0.0510
 1137CHOL    R310252  11.129   5.038   4.051 -0.0419 -0.0481  0.0005
 1137CHOL    R410253  11.179   5.326   4.033 -0.3507  0.0022 -0.0717
 1137CHOL    R510254  11.282   5.184   4.162 -0.0694  0.1124 -0.1697
 1137CHOL    C110255  11.143   5.424   4.424 -0.0358 -0.0134 -0.0354
 1137CHOL    C210256  11.165   5.438   4.725 -0.2660  0.0680 -0.2655
 1138PNCE   AM110257   2.452   8.668   4.413 -0.0371 -0.2127  0.2323
 1138PNCE   AM210258   2.641   8.520   4.461  0.1195  0.1194  0.0859
 1138PNCE   T1A10259   2.281   8.862   4.876  0.0704 -0.1361 -0.1485
 1138PNCE   C2A10260   2.052   8.753   5.356 -0.0100  0.1396  0.1172
 1138PNCE   C3A10261   1.877   8.555   5.760 -0.0426  0.1895 -0.0475
 1138PNCE   C1B10262   2.718   8.297   4.804  0.1369  0.0862 -0.0960
 1138PNCE   C2B10263   3.019   8.240   5.127  0.0756 -0.4054  0.0424
 1138PNCE   C3B10264   3.261   7.950   5.316 -0.2269 -0.4383  0.1855
 1138PNCE   D4B10265   3.687   8.013   5.384 -0.2039  0.0493  0.2286
 1138PNCE   C5B10266   3.778   8.018   5.901  0.1370 -0.1893  0.0261
 1138PNCE   C6B10267   3.522   8.006   6.207 -0.0885 -0.1947 -0.1139
 1139PNCE   AM110268  13.795  14.695   4.835 -0.1581  0.1010  0.2242
 1139PNCE   AM210269  14.101  14.750   4.891  0.2036  0.3120  0.1324
 1139PNCE   T1A10270  13.565  14.925   5.124  0.1286 -0.0795  0.0350
 1139PNCE   C2A10271  13.538  15.193   5.545 -0.2552 -0.1833 -0.1403
 1139PNCE   C3A10272  13.545  15.161   6.012  0.0271 -0.1288 -0.2462
 1139PNCE   C1B10273  14.420  15.112   4.930 -0.2600  0.0458 -0.1107
 1139PNCE   C2B10274  14.695  15.359   5.224 -0.2724  0.0793  0.0872
 1139PNCE   C3B10275  14.932  15.604   5.470 -0.2966 -0.3192 -0.3447
 1139PNCE   D4B10276  14.899  15.905   5.845  0.3140  0.1465  0.0949
 1139PNCE   C5B10277  15.100  16.137   5.788 -0.0577 -0.0798 -0.1892
 1139PNCE   C6B10278  15.302  16.438   6.050 -0.3232  0.0220  0.1403
 1140XCA    COO10279  14.143   8.323   3.894  0.0677 -0.0130  0.1896
 1140XCA     C110280  13.888   8.045   4.234  0.5038  0.1152  0.0688
 1140XCA     C210281  13.662   7.709   4.481 -0.0101  0.0058  0.0026
 1140XCA     C310282  13.525   7.382   4.388 -0.1564 -0.1114 -0.0429
 1140XCA     C410283  13.211   7.131   4.385  0.0489  0.1543 -0.0496
 1140XCA     C510284  12.887   6.781   4.480  0.2636 -0.1811 -0.0143
 1140XCA     C610285  12.914   6.427   4.690  0.2487  0.1031  0.1100
 1141CHOL   ROH10286   6.134   9.901   5.063 -0.0961 -0.1279 -0.1445
 1141CHOL    R110287   6.210   9.796   5.315 -0.0813 -0.1057 -0.1395
 1141CHOL    R210288   6.452   9.855   5.434 -0.0944 -0.0565 -0.1364
 1141CHOL    R310289   6.294   9.930   5.643 -0.1126 -0.0790 -0.1423
 1141CHOL    R410290   6.498   9.755   5.762 -0.0156  0.0502 -0.1144
 1141CHOL    R510291   6.281   9.734   5.780 -0.0046 -0.0505 -0.0903
 1141CHOL    C110292   6.376   9.767   6.148  0.0133  0.0913 -0.1071
 1141CHOL    C210293   6.255   9.879   6.473  0.0186  0.1966 -0.3959
 1142PNCE   AM110294   3.166   6.526   5.206 -0.1065 -0.1456 -0.1902
 1142PNCE   AM210295   3.321   6.513   4.975 -0.1306  0.3062 -0.1448
 1142PNCE   T1A10296   2.920   6.138   5.470  0.0146 -0.0259  0.1564
 1142PNCE   C2A10297   2.782   5.788   5.615  0.2901 -0.1031 -0.0824
 1142PNCE   C3A10298   2.377   5.558   5.845 -0.0158  0.1225  0.0283
 1142PNCE   C1B10299   3.668   6.434   5.306 -0.3464 -0.0325  0.2274
 1142PNCE   C2B10300   3.964   6.108   5.511 -0.0718 -0.1709  0.1159
 1142PNCE   C3B10301   4.256   6.036   5.811 -0.1285  0.1550 -0.4299
 1142PNCE   D4B10302   4.453   6.421   6.124 -0.2637 -0.2988 -0.0224
 1142PNCE   C5B10303   4.902   6.477   6.032 -0.1203 -0.1080 -0.0945
 1142PNCE   C6B10304   5.376   6.307   5.898  0.0519  0.0078 -0.1822
 1143PNCE   AM110305   2.852  14.614   4.263 -0.1127  0.0607  0.1819
 1143PNCE   AM210306   2.824  14.969   4.324 -0.1110 -0.0126  0.1281
 1143PNCE   T1A10307   2.797  14.614   4.647  0.1885 -0.1331 -0.3334
 1143PNCE   C2A10308   2.988  14.831   5.054 -0.1664  0.2696  0.2382
 1143PNCE   C3A10309   3.160  14.632   5.494  0.0849 -0.0354 -0.1804
 1143PNCE   C1B10310   2.735  15.161   4.731 -0.0400  0.2402  0.1089
 1143PNCE   C2B10311   2.796  15.418   5.139  0.2993  0.1627 -0.0437
 1143PNCE   C3B10312   2.834  15.559   5.515  0.5814  0.1642 -0.2661
 1143PNCE   D4B10313   3.015  15.623   5.974  0.1388  0.2460  0.1539
 1143PNCE   C5B10314   3.444  15.584   5.954  0.2391  0.0610  0.0043
 1143PNCE   C6B10315   3.660  15.143   5.888  0.1394  0.1094 -0.0666
 1144CHOL   ROH10316  10.061  15.306   8.620 -0.0086  0.0256  0.0513
 1144CHOL    R110317  10.048  15.543   8.466  0.0547 -0.0159 -0.0209
 1144CHOL    R210318  10.124  15.552   8.200  0.0304 -0.1222 -0.0391
 1144CHOL    R310319   9.875  15.654   8.166  0.0589 -0.0544 -0.0351
 1144CHOL    R410320  10.035  15.782   7.957  0.0888 -0.0585  0.0010
 1144CHOL    R510321   9.911  15.882   8.105  0.1100 -0.0570  0.0066
 1144CHOL    C110322   9.749  16.011   7.785  0.1496  0.0420  0.0280
 1144CHOL    C210323   9.840  16.253   7.361  0.3748 -0.0357 -0.3748
 1145CHOL   ROH10324   4.794  15.270   5.017 -0.0505 -0.0210  0.0437
 1145CHOL    R110325   4.926  15.382   5.241 -0.0127 -0.0141  0.0176
 1145CHOL    R210326   4.982  15.235   5.469 -0.0170  0.0067  0.0293
 1145CHOL    R310327   5.236  15.321   5.422 -0.0061 -0.0399 -0.0007
 1145CHOL    R410328   5.233  15.245   5.706 -0.0607  0.1986  0.0697
 1145CHOL    R510329   5.297  15.437   5.623 -0.0401  0.1302 -0.0841
 1145CHOL    C110330   5.618  15.332   5.800 -0.0760  0.2665  0.0650
 1145CHOL    C210331   6.010  15.482   5.831 -0.1777  0.3066  0.1757
 1146PNCE   AM110332   4.118   9.290   4.998  0.2996  0.1275 -0.3142
 1146PNCE   AM210333   3.996   9.534   4.927  0.0329 -0.1321  0.1388
 1146PNCE   T1A10334   4.128   8.986   5.357 -0.2878 -0.3623 -0.0045
 1146PNCE   C2A10335   4.237   8.745   5.599 -0.0082 -0.0646  0.1907
 1146PNCE   C3A10336   3.914   8.636   5.913 -0.0443 -0.2094 -0.3528
 1146PNCE   C1B10337   3.851   9.805   5.304 -0.0155 -0.0530  0.2293
 1146PNCE   C2B10338   3.587   9.959   5.746 -0.2393 -0.4380 -0.0039
 1146PNCE   C3B10339   3.642   9.947   6.224  0.1083 -0.0981 -0.1717
 1146PNCE   D4B10340   3.353   9.935   6.574 -0.0879 -0.1062  0.0959
 1146PNCE   C5B10341   3.497   9.929   7.018  0.3172  0.5097  0.0776
 1146PNCE   C6B10342   3.788  10.068   7.295  0.1573 -0.0034  0.1826
 1147CHOL   ROH10343   1.233   1.063   9.012 -0.0292 -0.0315 -0.0145
 1147CHOL    R110344   1.282   0.872   8.809 -0.1566 -0.1408  0.0547
 1147CHOL    R210345   1.079   0.746   8.671 -0.2473  0.1303 -0.0720
 1147CHOL    R310346   1.211   0.840   8.453  0.0550 -0.0933  0.0073
 1147CHOL    R410347   1.035   0.630   8.349 -0.2211  0.1856 -0.0952
 1147CHOL    R510348   1.251   0.646   8.319 -0.1710 -0.1670  0.0456
 1147CHOL    C110349   1.133   0.652   7.956  0.0779  0.0080 -0.0343
 1147CHOL    C210350   1.156   0.814   7.586 -0.2642 -0.0074 -0.2423
 1148CHOL   ROH10351  10.381   2.852   5.170  0.1057  0.0099 -0.1469
 1148CHOL    R110352  10.486   2.872   5.432  0.1268 -0.1333 -0.1436
 1148CHOL    R210353  10.757   2.871   5.484  0.1325 -0.0896 -0.1735
 1148CHOL    R310354  10.701   3.103   5.613  0.0788 -0.1902 -0.0127
 1148CHOL    R410355  10.940   3.001   5.747  0.0562 -0.2671 -0.0300
 1148CHOL    R510356  10.754   3.059   5.842  0.0271 -0.3566 -0.0317
 1148CHOL    C110357  10.994   3.295   6.021 -0.0385 -0.4649  0.2045
 1148CHOL    C210358  11.303   3.360   6.052  0.2517  0.0939 -0.1770
 1149XCA    COO10359   7.471   8.098   8.453 -0.0776  0.1538  0.1608
 1149XCA     C110360   7.508   8.213   8.001 -0.0727 -0.2055 -0.0041
 1149XCA     C210361   7.735   8.170   7.649  0.2316  0.0872 -0.2225
 1149XCA     C310362   7.858   8.049   7.323  0.2900  0.1134 -0.1110
 1149XCA     C410363   7.919   7.836   6.958 -0.1573 -0.0645 -0.2510
 1149XCA     C510364   7.652   7.694   6.524 -0.1988  0.2190  0.4490
 1149XCA     C610365   7.664   7.797   6.085 -0.1084  0.0837  0.1413
 1150PNCE   AM110366  14.754  14.724   4.265 -0.1475 -0.0153  0.0921
 1150PNCE   AM210367  14.810  14.525   4.544  0.3919  0.1142 -0.2884
 1150PNCE   T1A10368  14.867  15.034   4.528 -0.2006 -0.3060  0.0211
 1150PNCE   C2A10369  15.018  14.912   4.980 -0.2418 -0.0442 -0.1110
 1150PNCE   C3A10370  15.184  14.599   5.294 -0.1698 -0.1344  0.1785
 1150PNCE   C1B10371  14.640  14.663   4.842  0.2156 -0.5296 -0.1420
 1150PNCE   C2B10372  14.478  14.635   5.226 -0.0082  0.1632  0.0354
 1150PNCE   C3B10373  14.278  14.501   5.670  0.0395  0.0245  0.3304
 1150PNCE   D4B10374  13.867  14.411   6.003 -0.0781  0.4267 -0.2281
 1150PNCE   C5B10375  13.795  14.736   6.277 -0.0016  0.1658  0.0493
 1150PNCE   C6B10376  13.545  15.029   6.528  0.0236  0.2584 -0.0341
 1151XCA    COO10377   1.316   4.351   4.629 -0.1879 -0.2648 -0.0025
 1151XCA     C110378   1.480   4.705   4.938 -0.1876  0.0021 -0.1326
 1151XCA     C210379   1.344   5.086   5.129 -0.0429 -0.0222  0.0399
 1151XCA     C310380   1.450   5.239   5.597 -0.2506  0.1227 -0.1718
 1151XCA     C410381   1.555   5.347   5.986 -0.0125  0.1945  0.0924
 1151XCA     C510382   2.012   5.269   6.028  0.0784 -0.3511  0.0239
 1151XCA     C610383   2.110   4.899   6.178  0.0206  0.3566  0.0165
 1152CHOL   ROH10384  11.849   6.778   5.826 -0.2228 -0.1234  0.1045
 1152CHOL    R110385  11.752   6.789   5.560 -0.2289 -0.1227  0.1053
 1152CHOL    R210386  11.487   6.838   5.500 -0.2170 -0.0153  0.1065
 1152CHOL    R310387  11.591   7.038   5.348 -0.1297 -0.0834  0.0783
 1152CHOL    R410388  11.365   6.936   5.192  0.0991 -0.2854 -0.1109
 1152CHOL    R510389  11.570   6.958   5.123  0.1650 -0.2504  0.1101
 1152CHOL    C110390  11.391   7.180   4.870  0.3652 -0.5066 -0.2640
 1152CHOL    C210391  11.389   7.302   4.478 -0.0671  0.0870  0.0083
 1153PNCE   AM110392   9.020   2.776   5.016  0.2412 -0.0079 -0.2485
 1153PNCE   AM210393   8.836   2.936   4.958  0.0019  0.2110  0.2615
 1153PNCE   T1A10394   9.175   2.980   5.490  0.2533  0.1646  0.0631
 1153PNCE   C2A10395   9.321   3.142   5.865 -0.0637 -0.0580 -0.0381
 1153PNCE   C3A10396   9.326   3.367   6.267  0.0632 -0.2902 -0.0954
 1153PNCE   C1B10397   8.744   3.127   5.308  0.0713 -0.1288 -0.3584
 1153PNCE   C2B10398   8.542   3.374   5.667  0.0040 -0.2462 -0.1500
 1153PNCE   C3B10399   8.433   3.393   6.096 -0.1543 -0.2010 -0.1066
 1153PNCE   D4B10400   8.267   3.618   6.475 -0.0327 -0.1812  0.0097
 1153PNCE   C5B10401   8.223   4.011   6.496 -0.0392  0.1094 -0.1949
 1153PNCE   C6B10402   8.375   4.416   6.296 -0.0718 -0.0800 -0.0760
 1154XCA    COO10403  14.779   8.454   3.914 -0.1055 -0.0115 -0.1223
 1154XCA     C110404  14.524   8.217   4.221 -0.3763  0.0172  0.1312
 1154XCA     C210405  14.378   8.074   4.569 -0.1915 -0.0239 -0.2100
 1154XCA     C310406  14.404   7.854   4.948  0.0604  0.0196 -0.0052
 1154XCA     C410407  14.338   7.631   5.380 -0.2178  0.3141  0.1219
 1154XCA     C510408  14.531   7.672   5.809 -0.1039  0.0747  0.2545
 1154XCA     C610409  14.529   8.050   6.166  0.0444 -0.1760 -0.0808
 1155CHOL   ROH10410   8.688   3.950   8.079  0.0710  0.2375 -0.1090
 1155CHOL    R110411   8.828   3.764   7.919 -0.0919  0.0737 -0.0627
 1155CHOL    R210412   8.707   3.624   7.714 -0.1677  0.2870 -0.1583
 1155CHOL    R310413   8.910   3.728   7.566  0.0708  0.0305 -0.0231
 1155CHOL    R410414   8.838   3.479   7.428 -0.3288  0.2238 -0.2022
 1155CHOL    R510415   9.037   3.537   7.497 -0.2375 -0.1620 -0.0934
 1155CHOL    C110416   9.105   3.493   7.124 -0.1985 -0.0537 -0.1008
 1155CHOL    C210417   9.286   3.564   6.830  0.0960 -0.2661 -0.3408
 1156CHOL   ROH10418   5.195   4.243   8.484 -0.1891  0.1032 -0.0817
 1156CHOL    R110419   5.197   4.128   8.226 -0.0224  0.2413 -0.1429
 1156CHOL    R210420   5.418   4.136   8.061  0.2113  0.0050  0.1540
 1156CHOL    R310421   5.383   3.867   8.054 -0.1817  0.0537 -0.0375
 1156CHOL    R410422   5.516   3.931   7.800  0.2030  0.0187  0.1396
 1156CHOL    R510423   5.330   3.820   7.825  0.0003  0.2718 -0.1320
 1156CHOL    C110424   5.540   3.559   7.642 -0.1708  0.0724 -0.0487
 1156CHOL    C210425   5.540   3.333   7.274  0.0716  0.1705  0.1327
 1157CHOL   ROH10426   7.016   0.119   5.307  0.1520 -0.0182  0.0536
 1157CHOL    R110427   7.004   0.130   5.589 -0.0263  0.0095  0.0455
 1157CHOL    R210428   6.774   0.071   5.731 -0.0743 -0.1196 -0.0892
 1157CHOL    R310429   6.937  -0.105   5.859 -0.0402  0.0001  0.0349
 1157CHOL    R410430   6.765   0.004   6.070 -0.2614 -0.0976 -0.0882
 1157CHOL    R510431   6.982  -0.000   6.070 -0.2543  0.0507  0.0604
 1157CHOL    C110432   6.912  -0.199   6.388 -0.3384  0.0277  0.0290
 1157CHOL    C210433   6.951  -0.376   6.814 -0.1394 -0.2196  0.3780
 1158PNCE   AM110434  14.398   5.772   3.588 -0.0718  0.1787  0.1560
 1158PNCE   AM210435  14.121   5.786   3.645 -0.4126  0.1316 -0.0990
 1158PNCE   T1A10436  14.600   5.889   3.975  0.0338  0.0806 -0.0079
 1158PNCE   C2A10437  14.993   5.988   4.187  0.0863  0.1579  0.1613
 1158PNCE   C3A10438  15.222   5.847   4.553 -0.0873  0.3400  0.0188
 1158PNCE   C1B10439  14.143   5.482   4.076  0.1026 -0.3897 -0.1948
 1158PNCE   C2B10440  13.801   5.421   4.394 -0.4327  0.2786 -0.0616
 1158PNCE   C3B10441  14.085   5.178   4.784 -0.4083 -0.0092 -0.2097
 1158PNCE   D4B10442  14.012   4.742   4.907 -0.3047 -0.3220 -0.4715
 1158PNCE   C5B10443  13.926   4.484   4.510  0.0195  0.2397  0.2866
 1158PNCE   C6B10444  13.684   4.165   4.155  0.0191  0.1690 -0.0025
 1159CHOL   ROH10445  14.297   8.650   7.721  0.0458  0.1109 -0.0501
 1159CHOL    R110446  14.510   8.638   7.535 -0.0331  0.1803 -0.1464
 1159CHOL    R210447  14.538   8.820   7.329 -0.0184  0.3689  0.0159
 1159CHOL    R310448  14.787   8.851   7.435  0.0377  0.1350 -0.0442
 1159CHOL    R410449  14.809   8.956   7.163  0.0269  0.2776  0.0158
 1159CHOL    R510450  14.935   8.803   7.253 -0.0508  0.1387 -0.1144
 1159CHOL    C110451  15.200   9.063   7.165  0.1060  0.0048 -0.0407
 1159CHOL    C210452  15.397   9.272   7.375 -0.0628 -0.0675 -0.0927
 1160XCA    COO10453   9.942   0.189   9.571  0.0446 -0.2228 -0.0221
 1160XCA     C110454   9.997   0.573   9.351 -0.1973  0.2321 -0.0360
 1160XCA     C210455  10.385   0.825   9.216  0.2732 -0.1259  0.0561
 1160XCA     C310456  10.484   1.010   8.939 -0.3194  0.0193  0.1584
 1160XCA     C410457  10.456   1.301   8.575  0.3292 -0.0693 -0.1393
 1160XCA     C510458  10.350   1.638   8.486  0.0302 -0.1290 -0.0928
 1160XCA     C610459  10.265   1.797   8.113  0.0640  0.0885  0.1754
 1161CHOL   ROH10460   8.154  12.761   5.060  0.1787 -0.1401  0.0142
 1161CHOL    R110461   8.271  12.774   5.318  0.1668 -0.1218  0.0191
 1161CHOL    R210462   8.121  12.808   5.548  0.1618 -0.0260  0.0051
 1161CHOL    R310463   8.251  12.582   5.627  0.0864 -0.0509  0.0571
 1161CHOL    R410464   8.272  12.764   5.856  0.3990  0.0988 -0.0909
 1161CHOL    R510465   8.436  12.663   5.756  0.2483 -0.0768 -0.1585
 1161CHOL    C110466   8.481  12.528   6.110  0.4664  0.1481 -0.0979
 1161CHOL    C210467   8.198  12.413   6.394  0.0494  0.2486  0.1039
 1162CHOL   ROH10468  12.556  15.673   9.133  0.0579  0.0370 -0.1637
 1162CHOL    R110469  12.573  15.727   8.856 -0.0760  0.1340 -0.1550
 1162CHOL    R210470  12.646  15.534   8.672  0.3367  0.3200 -0.1996
 1162CHOL    R310471  12.413  15.606   8.552  0.1608 -0.1630 -0.1659
 1162CHOL    R410472  12.595  15.540   8.330  0.3166  0.3436 -0.1959
 1162CHOL    R510473  12.482  15.726   8.356 -0.1143  0.0817 -0.1183
 1162CHOL    C110474  12.346  15.610   8.019  0.1396 -0.0963 -0.1623
 1162CHOL    C210475  12.340  15.750   7.736 -0.0039  0.0261  0.0548
 1163CHOL   ROH10476  15.560  14.427   5.104  0.2465 -0.2716 -0.0792
 1163CHOL    R110477  15.601  14.483   5.378  0.1189 -0.0808 -0.0972
 1163CHOL    R210478  15.471  14.345   5.580  0.0547  0.0342 -0.0617
 1163CHOL    R310479  15.724  14.302   5.669  0.0232  0.1334  0.0803
 1163CHOL    R410480  15.559  14.291   5.909 -0.1423 -0.1509 -0.0371
 1163CHOL    R510481  15.734  14.415   5.879 -0.1978 -0.0114  0.1749
 1163CHOL    C110482  15.848  14.219   6.185 -0.2865 -0.1655  0.1104
 1163CHOL    C210483  15.796  14.116   6.515 -0.0204  0.0070 -0.0949
 1164CHOL   ROH10484   5.764  12.717   5.293  0.0415 -0.0211  0.0307
 1164CHOL    R110485   5.772  12.711   5.575 -0.0105 -0.0399  0.0314
 1164CHOL    R210486   5.982  12.814   5.721  0.0026 -0.1283  0.0729
 1164CHOL    R310487   5.785  12.955   5.845  0.0345 -0.0603  0.0483
 1164CHOL    R410488   5.938  12.832   6.063  0.0179 -0.0453  0.0713
 1164CHOL    R510489   5.723  12.817   6.031  0.0124 -0.0086  0.0808
 1164CHOL    C110490   5.726  12.974   6.379  0.0567  0.0669  0.0473
 1164CHOL    C210491   5.640  12.703   6.674 -0.0611  0.0703 -0.0031
 1165CHOL   ROH10492   0.539  15.527   5.001  0.0767 -0.0355  0.0457
 1165CHOL    R110493   0.561  15.557   5.282  0.3430  0.0299  0.0191
 1165CHOL    R210494   0.392  15.429   5.459  0.2487  0.3939  0.1896
 1165CHOL    R310495   0.625  15.340   5.567  0.1761  0.0190  0.0519
 1165CHOL    R410496   0.426  15.298   5.777  0.1821  0.1797  0.1107
 1165CHOL    R510497   0.614  15.406   5.796  0.3468 -0.0792  0.0968
 1165CHOL    C110498   0.664  15.138   6.063  0.0752 -0.2970 -0.0645
 1165CHOL    C210499   0.330  15.154   6.220  0.0142  0.3545  0.2945
 1166PNCE   AM110500  12.525   0.189   4.802  0.2213  0.0995  0.2269
 1166PNCE   AM210501  12.812   0.316   4.811  0.0260 -0.1029 -0.0222
 1166PNCE   T1A10502  12.634  -0.186   5.095 -0.2191 -0.5002 -0.1288
 1166PNCE   C2A10503  12.623  -0.439   5.450  0.3181  0.2702  0.2099
 1166PNCE   C3A10504  12.661  -0.506   5.836  0.0661  0.1144  0.3934
 1166PNCE   C1B10505  13.025   0.265   5.265  0.0533  0.0277  0.2743
 1166PNCE   C2B10506  13.226   0.181   5.662  0.2317  0.0108  0.1985
 1166PNCE   C3B10507  13.482   0.053   5.951 -0.1412  0.0017  0.1246
 1166PNCE   D4B10508  13.407   0.069   6.397 -0.1067 -0.3092  0.1993
 1166PNCE   C5B10509  13.570   0.296   6.664  0.1520 -0.1786 -0.0326
 1166PNCE   C6B10510  13.530   0.175   7.165  0.1422  0.3371 -0.0240
 1167XCA    COO10511  12.602   1.539   9.246 -0.1026 -0.0788  0.0637
 1167XCA     C110512  12.728   1.486   8.791  0.1949 -0.2277  0.0478
 1167XCA     C210513  12.644   1.402   8.312 -0.2071 -0.0658 -0.1530
 1167XCA     C310514  12.627   1.096   8.032 -0.2259 -0.3664 -0.0525
 1167XCA     C410515  12.805   1.208   7.653 -0.1276  0.0997  0.0038
 1167XCA     C510516  13.000   1.502   7.403  0.2776 -0.2619 -0.2411
 1167XCA     C610517  12.777   1.604   6.914  0.0509 -0.1700 -0.3079
 1168PNCE   AM110518  13.219  10.014   4.445 -0.1807  0.1617 -0.1268
 1168PNCE   AM210519  13.225  10.445   4.434  0.3240  0.0996  0.0153
 1168PNCE   T1A10520  13.005   9.849   4.855 -0.2671 -0.2348 -0.0944
 1168PNCE   C2A10521  12.800   9.852   5.219  0.0063 -0.0306  0.0063
 1168PNCE   C3A10522  12.870  10.054   5.632  0.1406 -0.2590  0.1615
 1168PNCE   C1B10523  13.364  10.197   4.900  0.0200  0.0401  0.2320
 1168PNCE   C2B10524  13.350  10.095   5.270  0.1199  0.1653  0.0723
 1168PNCE   C3B10525  13.357   9.835   5.671  0.1125 -0.1862 -0.0775
 1168PNCE   D4B10526  13.033   9.723   5.982  0.0527 -0.3918  0.1491
 1168PNCE   C5B10527  12.859   9.964   6.330 -0.1595  0.1655 -0.1988
 1168PNCE   C6B10528  12.613  10.205   6.513  0.1633  0.2469  0.1351
 1169PNCE   AM110529   1.873   3.506   4.757 -0.1197  0.0175  0.0115
 1169PNCE   AM210530   1.791   3.288   4.991 -0.2331 -0.0325  0.3337
 1169PNCE   T1A10531   1.618   3.774   5.114 -0.1515  0.0754 -0.3002
 1169PNCE   C2A10532   1.405   3.844   5.487 -0.2301  0.2680  0.0316
 1169PNCE   C3A10533   1.497   3.585   5.805 -0.2108  0.0680 -0.1162
 1169PNCE   C1B10534   1.878   3.453   5.426 -0.0148  0.1913 -0.1405
 1169PNCE   C2B10535   1.962   3.373   5.902 -0.2102  0.0524 -0.0760
 1169PNCE   C3B10536   2.126   3.138   6.299 -0.1250 -0.3087 -0.1046
 1169PNCE   D4B10537   2.166   2.859   6.632  0.4624 -0.3814 -0.0040
 1169PNCE   C5B10538   1.801   2.758   6.842  0.0621 -0.0227  0.0150
 1169PNCE   C6B10539   1.854   2.469   7.310 -0.1731 -0.2897  0.2266
 1170XCA    COO10540  15.159  12.778   5.060  0.3314 -0.1583  0.1318
 1170XCA     C110541  15.321  12.722   5.461  0.2060  0.2235 -0.0585
 1170XCA     C210542  15.378  12.564   5.837 -0.0438 -0.1855  0.0329
 1170XCA     C310543  15.794  12.581   6.211 -0.2298  0.0324 -0.0378
 1170XCA     C410544  16.095  12.462   6.328 -0.0702 -0.3758  0.0019
 1170XCA     C510545  16.435  12.100   6.383  0.1386  0.1273  0.0132
 1170XCA     C610546  16.789  12.049   6.178  0.0437 -0.0837  0.0074
 1171CHOL   ROH10547   1.950   2.341   6.777  0.1720 -0.0393 -0.0620
 1171CHOL    R110548   1.775   2.120   6.769  0.0866  0.0231  0.0507
 1171CHOL    R210549   1.821   1.900   6.608 -0.1740  0.0737 -0.0981
 1171CHOL    R310550   1.795   1.764   6.842  0.0560 -0.0150 -0.1213
 1171CHOL    R410551   1.715   1.572   6.635 -0.1110  0.0512 -0.1201
 1171CHOL    R510552   1.599   1.629   6.811  0.0418 -0.0260  0.0083
 1171CHOL    C110553   1.628   1.253   6.870  0.1416 -0.0451 -0.1546
 1171CHOL    C210554   1.267   1.084   6.892  0.0388  0.0753  0.0940
 1172CHOL   ROH10555   9.034   7.454   4.674  0.0833 -0.1641 -0.0860
 1172CHOL    R110556   9.242   7.368   4.846  0.1252 -0.0096 -0.0588
 1172CHOL    R210557   9.467   7.521   4.895  0.0210  0.1435 -0.0555
 1172CHOL    R310558   9.395   7.487   5.155  0.0221  0.1239 -0.0576
 1172CHOL    R410559   9.674   7.575   5.166 -0.0367  0.3173 -0.0445
 1172CHOL    R510560   9.590   7.396   5.259  0.0769  0.2691 -0.0310
 1172CHOL    C110561   9.727   7.574   5.568 -0.0692  0.4000 -0.0401
 1172CHOL    C210562   9.996   7.614   5.839  0.3969 -0.0468 -0.0120
 1173PNCE   AM110563  13.890   8.921   4.337  0.0657 -0.0068 -0.1841
 1173PNCE   AM210564  13.730   9.032   4.022 -0.0885  0.1360 -0.1740
 1173PNCE   T1A10565  14.011   8.428   4.546  0.1003  0.3260 -0.1765
 1173PNCE   C2A10566  14.234   8.365   4.980 -0.0479  0.0597 -0.2027
 1173PNCE   C3A10567  14.505   8.636   5.204  0.0991 -0.0737  0.2400
 1173PNCE   C1B10568  13.363   8.819   4.184 -0.0708 -0.0866  0.3059
 1173PNCE   C2B10569  13.496   8.755   4.592  0.2119  0.0926 -0.0483
 1173PNCE   C3B10570  13.606   8.493   4.950  0.0131  0.4977  0.2577
 1173PNCE   D4B10571  13.448   8.123   5.234 -0.2292 -0.0372  0.0611
 1173PNCE   C5B10572  13.699   8.128   5.588 -0.0980 -0.0047  0.0703
 1173PNCE   C6B10573  14.092   7.942   5.766 -0.0915  0.4582  0.2379
 1174CHOL   ROH10574  11.833   9.297   4.287 -0.0506  0.0022  0.0031
 1174CHOL    R110575  11.782   9.197   4.547  0.0109  0.0242  0.0229
 1174CHOL    R210576  11.544   9.075   4.616  0.0268  0.0392  0.0900
 1174CHOL    R310577  11.707   8.873   4.695  0.0374  0.0382  0.0693
 1174CHOL    R410578  11.455   8.827   4.839 -0.0861 -0.1912 -0.2028
 1174CHOL    R510579  11.654   8.842   4.927 -0.1708 -0.1810 -0.0007
 1174CHOL    C110580  11.557   8.492   5.044 -0.1420 -0.3264 -0.3927
 1174CHOL    C210581  11.366   8.228   5.223  0.2702 -0.2457 -0.0487
 1175CHOL   ROH10582   2.918   7.190   7.824  0.0248 -0.1427  0.0917
 1175CHOL    R110583   2.739   7.237   7.610  0.0011 -0.1485  0.1102
 1175CHOL    R210584   2.741   7.085   7.380 -0.0986 -0.2266  0.1607
 1175CHOL    R310585   2.478   7.050   7.439 -0.1009 -0.1099  0.2221
 1175CHOL    R410586   2.504   6.961   7.160 -0.2279 -0.0115  0.1756
 1175CHOL    R510587   2.363   7.109   7.237 -0.1278  0.0344  0.2774
 1175CHOL    C110588   2.119   6.856   7.089 -0.3053  0.2233  0.2420
 1175CHOL    C210589   2.395   6.807   6.746 -0.0787  0.2097  0.2402
 1176XCA    COO10590  11.636   3.695   3.985  0.1903  0.3796  0.0822
 1176XCA     C110591  11.345   3.904   4.167  0.1117  0.3315 -0.2122
 1176XCA     C210592  11.446   4.330   4.446  0.0249 -0.0698  0.0315
 1176XCA     C310593  11.299   4.493   4.694 -0.0026 -0.2758 -0.0124
 1176XCA     C410594  11.253   4.678   5.007  0.0795 -0.1906 -0.0293
 1176XCA     C510595  11.487   4.809   5.320 -0.0061 -0.0020  0.0950
 1176XCA     C610596  11.729   4.499   5.504  0.2480  0.1060  0.1207
 1177XCA    COO10597   7.680   8.140   4.680 -0.0499 -0.2123 -0.2191
 1177XCA     C110598   7.673   8.014   5.086 -0.0133 -0.2098  0.0671
 1177XCA     C210599   7.857   7.882   5.518  0.3154  0.0419  0.0318
 1177XCA     C310600   8.003   7.450   5.787 -0.0761  0.2437  0.2073
 1177XCA     C410601   8.287   7.191   6.045 -0.2536  0.1698 -0.0187
 1177XCA     C510602   8.232   6.931   6.499  0.3050 -0.3223  0.1351
 1177XCA     C610603   8.013   6.556   6.688  0.4500  0.3751  0.2790
 1178XCA    COO10604   4.126  10.024   4.987  0.2471  0.0819  0.2144
 1178XCA     C110605   3.776  10.300   5.097  0.3654  0.0085 -0.0643
 1178XCA     C210606   3.625  10.572   5.388 -0.1140  0.0036  0.1930
 1178XCA     C310607   3.417  10.806   5.734  0.0675  0.0073  0.0912
 1178XCA     C410608   3.520  11.059   6.124  0.1150  0.2392 -0.0176
 1178XCA     C510609   3.675  11.062   6.563  0.0187 -0.0134  0.2843
 1178XCA     C610610   3.506  10.912   6.897 -0.2976 -0.2932 -0.0580
 1179XCA    COO10611  14.535   4.042   4.361  0.1060 -0.2771 -0.3164
 1179XCA     C110612  14.127   3.931   4.505  0.1799 -0.2943 -0.5604
 1179XCA     C210613  13.958   3.591   4.672  0.1936 -0.0843  0.0416
 1179XCA     C310614  13.944   3.632   5.097 -0.1756 -0.1075  0.1540
 1179XCA     C410615  13.863   3.776   5.532 -0.0718 -0.1052 -0.0200
 1179XCA     C510616  13.984   3.616   5.908  0.1087  0.4545 -0.1588
 1179XCA     C610617  14.314   3.548   6.141  0.0101 -0.2257  0.0788
 1180CHOL   ROH10618  13.521  15.867   8.695 -0.0430 -0.1699 -0.0194
 1180CHOL    R110619  13.614  16.043   8.493  0.0243 -0.1440  0.0340
 1180CHOL    R210620  13.882  16.085   8.445  0.0400 -0.2481  0.0391
 1180CHOL    R310621  13.815  16.016   8.191 -0.0008 -0.1345  0.0139
 1180CHOL    R410622  14.013  16.230   8.160  0.1425 -0.2429  0.0885
 1180CHOL    R510623  13.814  16.224   8.072  0.1326 -0.0913  0.0776
 1180CHOL    C110624  14.026  16.250   7.756  0.1638 -0.1332  0.0934
 1180CHOL    C210625  13.923  16.386   7.387  0.3047  0.1858 -0.2110
 1181PNCE   AM110626   3.795  12.338   4.219  0.1995  0.2210  0.1885
 1181PNCE   AM210627   4.018  12.148   4.371 -0.0242  0.2510 -0.1326
 1181PNCE   T1A10628   3.590  12.559   4.627 -0.0129 -0.1260 -0.2361
 1181PNCE   C2A10629   3.643  12.632   4.962 -0.1211 -0.2386 -0.0687
 1181PNCE   C3A10630   3.690  12.723   5.428  0.1761  0.2394  0.0921
 1181PNCE   C1B10631   3.703  12.140   4.693  0.1308  0.1263 -0.1874
 1181PNCE   C2B10632   3.445  12.239   5.231 -0.3018 -0.0833  0.0531
 1181PNCE   C3B10633   3.403  12.270   5.734  0.0441 -0.1291 -0.1325
 1181PNCE   D4B10634   3.550  12.176   6.160 -0.1080  0.1654  0.3360
 1181PNCE   C5B10635   3.386  11.837   6.418  0.2036  0.0807  0.0074
 1181PNCE   C6B10636   3.302  11.432   6.633  0.0106 -0.2399  0.0963
 1182CHOL   ROH10637   5.404  10.310   7.869  0.0436 -0.0183  0.2072
 1182CHOL    R110638   5.589  10.365   7.661  0.0173  0.0830  0.2096
 1182CHOL    R210639   5.853  10.282   7.670  0.0285  0.1098  0.1520
 1182CHOL    R310640   5.792  10.170   7.430  0.0176  0.1947  0.1151
 1182CHOL    R410641   6.084  10.187   7.432  0.0149  0.2382  0.0869
 1182CHOL    R510642   5.951  10.265   7.278 -0.0148  0.2783  0.1331
 1182CHOL    C110643   6.162  10.027   7.068 -0.0033  0.3928  0.0144
 1182CHOL    C210644   6.498  10.066   6.907  0.0594  0.0590 -0.1084
 1183PNCE   AM110645   0.377   7.594   4.410 -0.0430 -0.0919 -0.0053
 1183PNCE   AM210646   0.110   7.439   4.200 -0.0239  0.1470  0.0420
 1183PNCE   T1A10647   0.084   7.635   4.698  0.2628 -0.3492 -0.1652
 1183PNCE   C2A10648  -0.232   7.675   4.949 -0.0646  0.2143 -0.1223
 1183PNCE   C3A10649  -0.657   7.684   5.024  0.0940  0.1491 -0.1123
 1183PNCE   C1B10650  -0.194   7.663   4.277 -0.0658  0.2538 -0.0897
 1183PNCE   C2B10651  -0.439   8.032   4.466  0.2046  0.1336  0.1475
 1183PNCE   C3B10652  -0.686   8.096   4.841 -0.0913  0.1651 -0.1313
 1183PNCE   D4B10653  -0.665   8.030   5.366 -0.0138  0.1629 -0.3023
 1183PNCE   C5B10654  -0.687   7.685   5.567 -0.0909  0.2664  0.1133
 1183PNCE   C6B10655  -0.574   7.707   6.006  0.1291 -0.1779  0.0083
 1184PNCE   AM110656   9.404  14.431   4.715  0.0222  0.1813 -0.1182
 1184PNCE   AM210657   9.033  14.248   4.700  0.0234 -0.0594 -0.0411
 1184PNCE   T1A10658   9.576  14.193   5.031 -0.1108  0.1719  0.1630
 1184PNCE   C2A10659   9.608  14.054   5.486 -0.0241 -0.0921  0.2123
 1184PNCE   C3A10660   9.442  14.109   5.956  0.0529  0.0844 -0.3477
 1184PNCE   C1B10661   8.931  14.037   5.009  0.1226 -0.1600  0.1156
 1184PNCE   C2B10662   9.195  13.874   5.348  0.0959  0.0639  0.0264
 1184PNCE   C3B10663   9.251  13.678   5.728  0.2884 -0.1260 -0.0222
 1184PNCE   D4B10664   9.258  13.641   6.197  0.1414  0.0686  0.1291
 1184PNCE   C5B10665   9.172  13.335   6.550 -0.2868  0.1423  0.0482
 1184PNCE   C6B10666   9.232  13.038   6.903  0.3040 -0.0951 -0.1428
 1185PNCE   AM110667   7.028  11.141   4.841 -0.1960 -0.2066 -0.1567
 1185PNCE   AM210668   6.757  11.252   4.950  0.0476 -0.3442 -0.0779
 1185PNCE   T1A10669   7.381  11.140   5.093 -0.0069 -0.1121 -0.1792
 1185PNCE   C2A10670   7.856  11.132   5.339  0.1196  0.0542  0.4343
 1185PNCE   C3A10671   8.091  11.039   5.687  0.3892 -0.0373  0.3938
 1185PNCE   C1B10672   6.542  11.176   5.381  0.0360  0.0344 -0.0094
 1185PNCE   C2B10673   6.559  11.067   5.754 -0.4661 -0.0871 -0.0840
 1185PNCE   C3B10674   6.394  11.180   6.112 -0.0106 -0.1625  0.1551
 1185PNCE   D4B10675   6.423  11.660   6.216 -0.0086 -0.1951  0.0805
 1185PNCE   C5B10676   6.318  11.794   6.552 -0.0377 -0.1854  0.0129
 1185PNCE   C6B10677   6.456  12.163   6.701  0.0122  0.1877  0.0140
 1186XCA    COO10678   5.697   3.069   5.271  0.0313  0.2168 -0.2927
 1186XCA     C110679   5.790   2.999   5.712 -0.4960  0.1737  0.1701
 1186XCA     C210680   5.793   3.195   6.135  0.1536  0.0681  0.0477
 1186XCA     C310681   5.901   3.349   6.372 -0.3756 -0.2382  0.0394
 1186XCA     C410682   5.890   3.478   6.890  0.0589 -0.2327 -0.2163
 1186XCA     C510683   6.055   3.358   7.274  0.3068  0.1786  0.2436
 1186XCA     C610684   5.900   3.094   7.724 -0.1313 -0.0597  0.0879
 1187CHOL   ROH10685   0.426   6.979   6.133  0.0287  0.1811  0.5589
 1187CHOL    R110686   0.251   7.163   6.006  0.0555  0.0187  0.2829
 1187CHOL    R210687   0.023   7.259   6.128 -0.0784  0.0093  0.0217
 1187CHOL    R310688   0.132   7.501   6.069 -0.1444  0.0214 -0.0626
 1187CHOL    R410689  -0.155   7.551   6.079 -0.1536  0.0471  0.4687
 1187CHOL    R510690  -0.021   7.600   5.915 -0.4211  0.1042  0.2401
 1187CHOL    C110691  -0.156   7.948   5.995 -0.2593  0.0804  0.6499
 1187CHOL    C210692  -0.446   8.190   5.862 -0.1780 -0.1265 -0.0475
 1188XCA    COO10693  14.991  10.575   8.825 -0.0851 -0.0926  0.0732
 1188XCA     C110694  15.091  10.650   8.390  0.0677  0.1488  0.0332
 1188XCA     C210695  15.056  10.732   7.960 -0.1610  0.1057  0.2120
 1188XCA     C310696  14.880  10.877   7.697  0.0172 -0.1290 -0.0591
 1188XCA     C410697  14.577  10.898   7.476  0.0313  0.1268 -0.0297
 1188XCA     C510698  14.217  11.020   7.353 -0.2363 -0.2450  0.0951
 1188XCA     C610699  13.850  11.220   7.195  0.0068  0.1189 -0.2141
 1189XCA    COO10700   1.478  15.124   8.503 -0.1864 -0.0694  0.2092
 1189XCA     C110701   1.754  15.179   8.160 -0.5281 -0.3809  0.0825
 1189XCA     C210702   2.083  15.455   7.903 -0.0931 -0.0480  0.0953
 1189XCA     C310703   2.187  15.675   7.568 -0.0562 -0.0509  0.0758
 1189XCA     C410704   1.925  15.916   7.354 -0.0434  0.2288 -0.0629
 1189XCA     C510705   1.503  15.961   7.153 -0.0977 -0.2373 -0.3100
 1189XCA     C610706   1.489  16.075   6.800  0.3579  0.0853  0.0624
 1190PNCE   AM110707  12.409   0.257   5.308  0.1567  0.1062  0.0938
 1190PNCE   AM210708  12.427   0.608   5.219  0.3953 -0.2492  0.1398
 1190PNCE   T1A10709  12.699   0.077   5.571  0.1139  0.2418  0.0390
 1190PNCE   C2A10710  12.738  -0.054   6.029  0.0425 -0.0692 -0.0278
 1190PNCE   C3A10711  12.479  -0.223   6.228  0.1378  0.0294 -0.0362
 1190PNCE   C1B10712  12.624   0.591   5.652  0.2423  0.3754 -0.0544
 1190PNCE   C2B10713  13.021   0.579   5.779  0.0305 -0.2545  0.2825
 1190PNCE   C3B10714  13.404   0.523   6.086 -0.2658  0.2506 -0.2585
 1190PNCE   D4B10715  13.828   0.388   6.102 -0.1513 -0.0369  0.1061
 1190PNCE   C5B10716  14.002   0.021   6.382 -0.1775  0.1434  0.0751
 1190PNCE   C6B10717  14.353   0.000   6.673  0.1078 -0.0696 -0.0173
 1191PNCE   AM110718   8.490   7.977   4.796  0.0201  0.0287 -0.0703
 1191PNCE   AM210719   8.813   7.952   4.650 -0.1061 -0.0935  0.1513
 1191PNCE   T1A10720   8.466   7.842   5.137 -0.3630  0.1408  0.0792
 1191PNCE   C2A10721   8.567   7.629   5.527  0.0840  0.0790  0.0228
 1191PNCE   C3A10722   8.711   7.362   5.896 -0.2301 -0.0139  0.1391
 1191PNCE   C1B10723   8.855   8.138   5.015  0.0171 -0.0458 -0.2652
 1191PNCE   C2B10724   8.750   8.198   5.440  0.3233 -0.0129 -0.4169
 1191PNCE   C3B10725   8.854   7.919   5.804 -0.1375  0.0320 -0.0213
 1191PNCE   D4B10726   8.551   7.746   6.148 -0.0562 -0.1752 -0.0499
 1191PNCE   C5B10727   8.157   7.920   6.203 -0.0368 -0.0581 -0.1945
 1191PNCE   C6B10728   7.962   8.123   6.458 -0.0422  0.0958 -0.2779
 1192CHOL   ROH10729  13.584  14.143   9.044  0.0504  0.1972  0.0013
 1192CHOL    R110730  13.738  14.161   8.808  0.0216  0.1056 -0.0253
 1192CHOL    R210731  13.747  13.958   8.621 -0.0297  0.0465  0.0333
 1192CHOL    R310732  13.674  14.156   8.450 -0.0276  0.0051 -0.0152
 1192CHOL    R410733  13.717  13.923   8.278 -0.0087 -0.0292  0.0396
 1192CHOL    R510734  13.808  14.119   8.255 -0.0159 -0.0319  0.0011
 1192CHOL    C110735  13.631  14.088   7.918  0.0055 -0.1122 -0.0022
 1192CHOL    C210736  13.561  14.238   7.556  0.0236 -0.1180  0.3692
 1193PNCE   AM110737  12.921  14.540   5.304  0.1338  0.2879  0.0614
 1193PNCE   AM210738  12.592  14.447   5.151 -0.0140  0.2974  0.1703
 1193PNCE   T1A10739  13.020  14.502   5.732  0.2542 -0.0403 -0.0335
 1193PNCE   C2A10740  12.902  14.286   6.139  0.1389  0.1676 -0.1228
 1193PNCE   C3A10741  12.722  14.001   6.524  0.0908 -0.0974 -0.2355
 1193PNCE   C1B10742  12.539  14.365   5.720  0.0166  0.0268  0.2308
 1193PNCE   C2B10743  12.441  14.375   6.185 -0.3503  0.1060  0.0116
 1193PNCE   C3B10744  12.653  14.447   6.583 -0.0254  0.2206 -0.1122
 1193PNCE   D4B10745  13.010  14.360   6.796  0.0491  0.1001  0.1435
 1193PNCE   C5B10746  13.449  14.129   6.758  0.0087 -0.0460 -0.0167
 1193PNCE   C6B10747  13.833  14.195   6.760  0.1101  0.0423  0.1182
 1194CHOL   ROH10748   0.299   8.357   5.204  0.0976 -0.0952  0.0869
 1194CHOL    R110749   0.363   8.156   5.392 -0.0527 -0.1161  0.1153
 1194CHOL    R210750   0.442   8.214   5.650 -0.0421 -0.1389  0.1109
 1194CHOL    R310751   0.237   8.047   5.716 -0.1550 -0.0021  0.1164
 1194CHOL    R410752   0.380   8.093   5.968 -0.0414 -0.1786  0.0970
 1194CHOL    R510753   0.331   7.900   5.880 -0.2155 -0.1225  0.0508
 1194CHOL    C110754   0.152   7.866   6.215 -0.1470 -0.0734  0.0941
 1194CHOL    C210755  -0.054   7.740   6.558 -0.0397 -0.3134  0.2069
 1195CHOL   ROH10756   1.234  13.465   6.609  0.2873  0.0416  0.1650
 1195CHOL    R110757   1.065  13.253   6.691  0.2008  0.0708  0.0655
 1195CHOL    R210758   1.059  13.009   6.563  0.0868  0.1380 -0.0619
 1195CHOL    R310759   1.108  12.913   6.812  0.0624 -0.0118 -0.1138
 1195CHOL    R410760   1.006  12.682   6.662 -0.0316  0.1050 -0.2285
 1195CHOL    R510761   0.930  12.758   6.852  0.0064  0.0347 -0.1861
 1195CHOL    C110762   1.021  12.402   6.955 -0.1235 -0.0547 -0.3743
 1195CHOL    C210763   0.840  12.137   6.899  0.1818  0.1932 -0.0039
 1196CHOL   ROH10764  15.571  11.971   4.814 -0.0023  0.0623  0.0908
 1196CHOL    R110765  15.642  11.738   4.957  0.1587  0.1354  0.1315
 1196CHOL    R210766  15.645  11.729   5.233 -0.0517  0.1241  0.1339
 1196CHOL    R310767  15.481  11.515   5.196  0.2275 -0.0710 -0.0123
 1196CHOL    R410768  15.539  11.515   5.483 -0.2271  0.1567  0.0895
 1196CHOL    R510769  15.566  11.348   5.345  0.1696  0.1016  0.2197
 1196CHOL    C110770  15.324  11.189   5.594 -0.0670 -0.0075 -0.0737
 1196CHOL    C210771  15.393  11.180   6.025 -0.0569 -0.0199  0.0820
 1197CHOL   ROH10772   5.891  11.594   8.780 -0.1620 -0.2072  0.1952
 1197CHOL    R110773   5.743  11.652   8.546 -0.1207 -0.0443  0.2084
 1197CHOL    R210774   5.834  11.824   8.351 -0.0133 -0.0340  0.2684
 1197CHOL    R310775   5.789  11.612   8.187 -0.1323  0.0453  0.1965
 1197CHOL    R410776   5.762  11.847   8.014  0.3945  0.1082  0.1855
 1197CHOL    R510777   5.616  11.687   8.039  0.1346  0.3087  0.0074
 1197CHOL    C110778   5.678  11.661   7.664  0.5203  0.2654  0.0696
 1197CHOL    C210779   5.454  12.033   7.456 -0.2284 -0.0715 -0.0803
 1198PNCE   AM110780   5.131  10.444   5.213 -0.0904  0.1688 -0.0412
 1198PNCE   AM210781   4.871  10.565   5.192  0.1885  0.1225  0.3211
 1198PNCE   T1A10782   5.535  10.241   5.512  0.1111  0.1158 -0.1076
 1198PNCE   C2A10783   5.750  10.377   5.941 -0.0374  0.0530  0.1334
 1198PNCE   C3A10784   5.834  10.390   6.329  0.0563  0.0031  0.1494
 1198PNCE   C1B10785   5.014  10.966   5.454 -0.3920  0.0460 -0.1127
 1198PNCE   C2B10786   4.982  11.292   5.655  0.3532 -0.3253 -0.2529
 1198PNCE   C3B10787   5.193  11.563   5.918 -0.0557 -0.0638 -0.1943
 1198PNCE   D4B10788   5.224  11.594   6.368  0.0701  0.0339  0.1445
 1198PNCE   C5B10789   5.014  11.783   6.569 -0.2578  0.1190  0.1310
 1198PNCE   C6B10790   4.791  12.159   6.536  0.2665  0.0121 -0.1480
 1199PNCE   AM110791   0.643   9.823   4.758 -0.0673  0.1939 -0.1049
 1199PNCE   AM210792   0.655   9.494   4.767 -0.0306 -0.0631  0.0866
 1199PNCE   T1A10793   0.728  10.015   5.139  0.0026 -0.1909  0.1422
 1199PNCE   C2A10794   0.976  10.122   5.540 -0.1515 -0.2970 -0.1411
 1199PNCE   C3A10795   1.217  10.185   5.882 -0.1046  0.0129  0.0824
 1199PNCE   C1B10796   0.581   9.484   5.190  0.1882  0.2069 -0.0821
 1199PNCE   C2B10797   0.815   9.615   5.513 -0.1762 -0.1180  0.1834
 1199PNCE   C3B10798   0.978   9.659   5.949 -0.0921 -0.1339 -0.2520
 1199PNCE   D4B10799   1.103   9.926   6.333  0.0661 -0.0949  0.0363
 1199PNCE   C5B10800   0.822  10.284   6.308  0.0537  0.2273  0.3060
 1199PNCE   C6B10801   0.455  10.329   6.238 -0.1399  0.1171  0.0652
 1200CHOL   ROH10802  10.530  10.542   7.154 -0.1648 -0.0928 -0.1164
 1200CHOL    R110803  10.586  10.818   7.176 -0.1294 -0.1066 -0.0247
 1200CHOL    R210804  10.480  11.006   7.004  0.0393 -0.0554 -0.0769
 1200CHOL    R310805  10.396  11.123   7.235 -0.1189 -0.0820 -0.1200
 1200CHOL    R410806  10.325  11.314   7.024  0.1534  0.0064 -0.1334
 1200CHOL    R510807  10.442  11.356   7.203  0.0105 -0.0932 -0.0159
 1200CHOL    C110808  10.156  11.603   7.253  0.0715  0.0174 -0.2068
 1200CHOL    C210809  10.222  12.000   7.277 -0.0754  0.1779 -0.1515
 1201CHOL   ROH10810   3.429  15.833   8.700  0.0307 -0.1460 -0.0425
 1201CHOL    R110811   3.589  15.828   8.467  0.0768 -0.1798 -0.0100
 1201CHOL    R210812   3.551  15.646   8.263 -0.1114  0.0132 -0.1493
 1201CHOL    R310813   3.537  15.869   8.109  0.2042  0.1458  0.0044
 1201CHOL    R410814   3.646  15.662   7.931 -0.2964  0.0389 -0.2017
 1201CHOL    R510815   3.733  15.858   7.971  0.1023 -0.1398 -0.1286
 1201CHOL    C110816   3.687  15.881   7.593 -0.1078  0.1784 -0.0880
 1201CHOL    C210817   3.600  15.623   7.373 -0.0359 -0.1893 -0.4122
 1202XCA    COO10818   3.952   7.402   5.070 -0.0090  0.3759  0.2632
 1202XCA     C110819   3.788   7.492   5.572  0.0347 -0.1799 -0.2167
 1202XCA     C210820   3.653   7.485   6.011 -0.0265  0.5328 -0.0472
 1202XCA     C310821   3.776   7.194   6.347 -0.2464  0.0046  0.1790
 1202XCA     C410822   3.830   6.940   6.620  0.1534  0.0948  0.0712
 1202XCA     C510823   3.748   6.649   6.864  0.2194  0.0023 -0.0697
 1202XCA     C610824   3.878   6.294   7.009 -0.0390  0.0455 -0.3028
 1203PNCE   AM110825  12.516   2.638   4.518  0.3700  0.3826 -0.0155
 1203PNCE   AM210826  12.762   2.793   4.467 -0.0651 -0.0964 -0.0165
 1203PNCE   T1A10827  12.795   2.438   4.921  0.1137  0.0641 -0.1370
 1203PNCE   C2A10828  13.011   2.263   5.312 -0.0128 -0.1047  0.0377
 1203PNCE   C3A10829  13.049   1.820   5.429 -0.2034  0.2230  0.0128
 1203PNCE   C1B10830  12.815   2.993   4.833  0.0737  0.1712 -0.0720
 1203PNCE   C2B10831  12.975   3.216   5.143  0.0303  0.0230  0.1879
 1203PNCE   C3B10832  13.258   3.377   5.489  0.2445 -0.0055  0.1850
 1203PNCE   D4B10833  13.322   3.415   5.838 -0.0092  0.0750  0.0678
 1203PNCE   C5B10834  13.028   3.356   6.049 -0.1037 -0.3176  0.0227
 1203PNCE   C6B10835  12.720   3.433   6.374  0.3992  0.0058  0.0370
 1204CHOL   ROH10836  12.907  11.103   8.124 -0.3486 -0.0958  0.1455
 1204CHOL    R110837  13.039  10.996   7.897 -0.0840  0.0955  0.2048
 1204CHOL    R210838  12.903  10.871   7.691  0.1952 -0.1469  0.1656
 1204CHOL    R310839  13.035  11.052   7.538 -0.0381  0.0566  0.1971
 1204CHOL    R410840  12.850  10.920   7.353  0.3779 -0.4226  0.0926
 1204CHOL    R510841  13.065  10.942   7.328  0.3695  0.0056  0.2707
 1204CHOL    C110842  12.943  11.119   7.013  0.2654 -0.3922  0.0797
 1204CHOL    C210843  13.044  10.903   6.713  0.1091  0.1380  0.0424
 1205CHOL   ROH10844   1.311   7.292   6.559  0.0099 -0.0268 -0.1877
 1205CHOL    R110845   1.132   7.400   6.750  0.1068  0.0817 -0.1574
 1205CHOL    R210846   1.023   7.653   6.726 -0.0183  0.0140 -0.3242
 1205CHOL    R310847   0.788   7.519   6.753  0.0565 -0.0650 -0.0188
 1205CHOL    R410848   0.724   7.795   6.826 -0.0349  0.0044 -0.3580
 1205CHOL    R510849   0.685   7.617   6.945  0.1117  0.1442 -0.0948
 1205CHOL    C110850   0.330   7.752   6.910  0.0257 -0.0753 -0.0911
 1205CHOL    C210851   0.424   8.144   7.062  0.0296 -0.0084 -0.2012
 1206PNCE   AM110852   3.686  12.423   8.720  0.1107  0.0853  0.1991
 1206PNCE   AM210853   3.794  12.680   8.700  0.0494 -0.2527  0.2106
 1206PNCE   T1A10854   3.548  12.285   8.361  0.2106 -0.0897  0.1203
 1206PNCE   C2A10855   3.539  12.207   7.942 -0.1409 -0.4511  0.2291
 1206PNCE   C3A10856   3.399  12.232   7.454 -0.0692  0.2011 -0.1703
 1206PNCE   C1B10857   4.124  12.748   8.463  0.4164 -0.1177  0.1576
 1206PNCE   C2B10858   4.459  13.093   8.317  0.1261  0.4190  0.0398
 1206PNCE   C3B10859   4.566  13.161   7.864 -0.2038 -0.0609  0.2821
 1206PNCE   D4B10860   4.227  13.245   7.584  0.1378 -0.1070 -0.1732
 1206PNCE   C5B10861   4.044  13.381   7.098 -0.0221 -0.0313 -0.0011
 1206PNCE   C6B10862   3.733  13.408   6.705 -0.3058 -0.2422  0.2738
 1207CHOL   ROH10863   4.545   2.866   7.808 -0.2240  0.0670 -0.1532
 1207CHOL    R110864   4.497   2.588   7.838 -0.1875  0.0726 -0.0415
 1207CHOL    R210865   4.249   2.475   7.790 -0.1321 -0.0019 -0.1529
 1207CHOL    R310866   4.392   2.314   7.624  0.0166 -0.0620  0.0283
 1207CHOL    R410867   4.137   2.174   7.663 -0.0750  0.0213 -0.2604
 1207CHOL    R510868   4.336   2.092   7.694 -0.1359 -0.0386 -0.0162
 1207CHOL    C110869   4.204   1.848   7.432  0.0980 -0.0216 -0.1529
 1207CHOL    C210870   3.900   1.603   7.161 -0.0289 -0.0803  0.0159
 1208PNCE   AM110871  11.209   0.900   5.376 -0.3760  0.2040  0.0795
 1208PNCE   AM210872  11.101   0.741   5.629 -0.5002 -0.3538 -0.0873
 1208PNCE   T1A10873  11.575   0.986   5.611 -0.0007 -0.2860  0.0717
 1208PNCE   C2A10874  11.794   0.709   5.988  0.2225  0.0595 -0.1601
 1208PNCE   C3A10875  11.943   0.488   6.292 -0.1100  0.1069 -0.1733
 1208PNCE   C1B10876  11.257   0.766   6.006  0.0904  0.0187 -0.1103
 1208PNCE   C2B10877  11.110   0.922   6.311 -0.0609 -0.2939  0.0644
 1208PNCE   C3B10878  11.375   1.055   6.693  0.2205 -0.0386 -0.0621
 1208PNCE   D4B10879  11.671   1.377   6.895 -0.1766  0.1707 -0.0218
 1208PNCE   C5B10880  11.729   1.783   6.835  0.1902  0.2516 -0.0584
 1208PNCE   C6B10881  11.849   1.979   6.496 -0.1128 -0.1291  0.2525
 1209XCA    COO10882   6.832  11.084   8.506  0.4651  0.1402 -0.2667
 1209XCA     C110883   6.803  11.061   8.130 -0.0070  0.4624  0.1551
 1209XCA     C210884   6.867  11.285   7.743 -0.1238  0.0245  0.1451
 1209XCA     C310885   7.097  11.613   7.416 -0.1827  0.0252  0.0108
 1209XCA     C410886   6.866  11.800   7.097 -0.1423 -0.1369  0.3517
 1209XCA     C510887   6.959  12.156   6.789  0.3765 -0.0592  0.3290
 1209XCA     C610888   7.101  12.350   6.466  0.0935 -0.1070 -0.1916
 1210PNCE   AM110889   5.175   8.467   4.907 -0.1162 -0.1687 -0.5646
 1210PNCE   AM210890   4.956   8.625   4.848  0.0386 -0.1372  0.0625
 1210PNCE   T1A10891   5.169   8.370   5.313  0.1210 -0.2225 -0.1272
 1210PNCE   C2A10892   5.364   8.219   5.607  0.3376  0.3408 -0.3986
 1210PNCE   C3A10893   5.433   7.806   5.795  0.2015 -0.1606 -0.1315
 1210PNCE   C1B10894   4.650   8.600   5.278 -0.1641 -0.1557  0.0360
 1210PNCE   C2B10895   4.627   8.345   5.681 -0.3218  0.2158  0.0512
 1210PNCE   C3B10896   4.642   8.198   6.106 -0.0196 -0.1601 -0.1571
 1210PNCE   D4B10897   4.872   7.846   6.422 -0.1218 -0.3333  0.1882
 1210PNCE   C5B10898   5.254   7.630   6.259 -0.2926  0.2068 -0.0147
 1210PNCE   C6B10899   5.771   7.611   6.115  0.2319 -0.0162 -0.5270
 1211PNCE   AM110900  13.723   0.546   4.533  0.1694  0.2308  0.3022
 1211PNCE   AM210901  13.660   0.473   4.836 -0.0729 -0.0975  0.3898
 1211PNCE   T1A10902  14.121   0.516   4.683  0.0076 -0.0551 -0.0853
 1211PNCE   C2A10903  14.465   0.408   4.629 -0.0668 -0.1727 -0.2052
 1211PNCE   C3A10904  14.715   0.093   4.582  0.1923  0.0446 -0.1213
 1211PNCE   C1B10905  13.957   0.573   5.165 -0.2110  0.1489 -0.3547
 1211PNCE   C2B10906  14.095   0.315   5.476 -0.1232  0.0472 -0.2748
 1211PNCE   C3B10907  14.200   0.021   5.786  0.0015  0.1577  0.0943
 1211PNCE   D4B10908  14.426  -0.040   6.148 -0.0234  0.1874 -0.2406
 1211PNCE   C5B10909  14.739  -0.247   6.445 -0.0125 -0.0509 -0.0022
 1211PNCE   C6B10910  14.801  -0.111   6.890 -0.4705 -0.0290  0.1955
 1212CHOL   ROH10911   1.345   7.741   8.509 -0.2195  0.1016 -0.1419
 1212CHOL    R110912   1.413   7.691   8.239 -0.1935  0.0911 -0.1335
 1212CHOL    R210913   1.562   7.470   8.162 -0.0849  0.1495 -0.0970
 1212CHOL    R310914   1.352   7.427   7.995 -0.0647  0.0203 -0.0901
 1212CHOL    R410915   1.580   7.305   7.859 -0.0154  0.0800 -0.0553
 1212CHOL    R510916   1.443   7.453   7.775 -0.0739  0.0016 -0.0949
 1212CHOL    C110917   1.394   7.169   7.526  0.0441 -0.0818 -0.0246
 1212CHOL    C210918   1.355   6.824   7.422  0.0397  0.1197 -0.2384
 1213PNCE   AM110919   9.374  13.738   8.714 -0.1152  0.0080 -0.1042
 1213PNCE   AM210920   9.133  13.658   8.910  0.0354 -0.0364 -0.0098
 1213PNCE   T1A10921   9.432  13.310   8.633  0.0377 -0.3339  0.0816
 1213PNCE   C2A10922   9.537  12.806   8.704 -0.1114  0.1154 -0.2786
 1213PNCE   C3A10923   9.850  12.651   8.986  0.0659 -0.0294  0.1867
 1213PNCE   C1B10924   8.988  13.274   8.658  0.2691 -0.0990  0.1357
 1213PNCE   C2B10925   9.180  12.935   8.393  0.1942  0.4990 -0.2087
 1213PNCE   C3B10926   9.588  12.884   8.233 -0.2495  0.2312  0.0524
 1213PNCE   D4B10927   9.804  12.880   7.864 -0.0304  0.2713 -0.0057
 1213PNCE   C5B10928  10.028  12.547   7.982 -0.3604  0.0085 -0.4038
 1213PNCE   C6B10929  10.387  12.551   8.129 -0.1112 -0.4391  0.0383
 1214PNCE   AM110930  12.822   0.798   4.736 -0.0745 -0.6188  0.3110
 1214PNCE   AM210931  12.977   1.097   4.838 -0.0055  0.0616 -0.3256
 1214PNCE   T1A10932  13.197   0.606   4.867 -0.2402 -0.3127 -0.2591
 1214PNCE   C2A10933  13.467   0.615   5.281 -0.1799 -0.1565 -0.1022
 1214PNCE   C3A10934  13.591   0.538   5.631 -0.0077  0.2433 -0.0423
 1214PNCE   C1B10935  12.861   1.276   5.229  0.1322 -0.0529 -0.0060
 1214PNCE   C2B10936  12.995   1.310   5.712 -0.0090  0.0395  0.0880
 1214PNCE   C3B10937  13.029   1.272   6.169 -0.1749 -0.3791 -0.1016
 1214PNCE   D4B10938  12.890   1.186   6.602  0.2278 -0.0781  0.1621
 1214PNCE   C5B10939  12.847   0.762   6.717  0.0974 -0.2557 -0.0168
 1214PNCE   C6B10940  13.048   0.303   6.664 -0.0605 -0.3505 -0.1382
 1215XCA    COO10941   7.608   0.438   5.054 -0.0852 -0.0917  0.1099
 1215XCA     C110942   7.379   0.403   5.509  0.0397  0.1159 -0.2040
 1215XCA     C210943   7.348   0.215   5.875 -0.3240 -0.0295 -0.0375
 1215XCA     C310944   7.454   0.148   6.292 -0.5179  0.0300 -0.1845
 1215XCA     C410945   7.694  -0.155   6.470  0.0177  0.0921 -0.2599
 1215XCA     C510946   7.962  -0.291   6.750  0.3601  0.0796  0.1540
 1215XCA     C610947   8.199  -0.622   6.925  0.1558  0.1394  0.2465
 1216CHOL   ROH10948  15.298  14.978   4.538  0.0476  0.0312 -0.0652
 1216CHOL    R110949  15.256  15.192   4.719  0.0319 -0.0668  0.0480
 1216CHOL    R210950  15.212  15.451   4.635  0.1727  0.0033  0.1871
 1216CHOL    R310951  14.990  15.429   4.791  0.0818 -0.0129  0.0571
 1216CHOL    R410952  15.057  15.715   4.796  0.1530 -0.0299  0.2229
 1216CHOL    R510953  15.027  15.585   4.969  0.0260 -0.1025  0.1492
 1216CHOL    C110954  14.758  15.848   5.035  0.0562 -0.0644  0.1217
 1216CHOL    C210955  14.818  16.239   4.952 -0.0799 -0.1598  0.0311
 1217CHOL   ROH10956   1.019   4.644   8.082  0.1327 -0.1483  0.0436
 1217CHOL    R110957   1.234   4.798   7.981  0.1090 -0.1291  0.0223
 1217CHOL    R210958   1.465   4.684   7.881  0.0516 -0.1138 -0.1325
 1217CHOL    R310959   1.406   4.834   7.662 -0.0252 -0.0031 -0.0369
 1217CHOL    R410960   1.682   4.744   7.619  0.0126  0.1476 -0.1071
 1217CHOL    R510961   1.610   4.950   7.613 -0.0797  0.1194  0.0245
 1217CHOL    C110962   1.753   4.920   7.260 -0.0822  0.4038 -0.0026
 1217CHOL    C210963   1.799   5.115   7.076  0.1028  0.1548  0.0977
 1218CHOL   ROH10964   2.781  11.395   8.657  0.0908 -0.1275 -0.0320
 1218CHOL    R110965   2.775  11.226   8.430  0.1562 -0.0100 -0.1239
 1218CHOL    R210966   2.557  11.068   8.368  0.2429 -0.1232 -0.1663
 1218CHOL    R310967   2.573  11.195   8.129  0.1133  0.0240 -0.0973
 1218CHOL    R410968   2.434  10.944   8.070  0.1575  0.0288 -0.1939
 1218CHOL    R510969   2.612  11.020   7.971  0.0946  0.1331 -0.2197
 1218CHOL    C110970   2.377  10.992   7.671 -0.0139  0.2555 -0.1451
 1218CHOL    C210971   2.572  10.991   7.233  0.2006  0.0407 -0.0565
 1219CHOL   ROH10972  12.123   2.011   8.694  0.1807 -0.1255 -0.1161
 1219CHOL    R110973  11.902   2.148   8.583  0.1268 -0.1513 -0.0418
 1219CHOL    R210974  11.869   2.422   8.608  0.0174 -0.1759  0.1096
 1219CHOL    R310975  11.851   2.412   8.337  0.0258 -0.0346  0.1037
 1219CHOL    R410976  11.641   2.599   8.419 -0.1025 -0.2254  0.2057
 1219CHOL    R510977  11.616   2.424   8.292  0.0194 -0.1705  0.1073
 1219CHOL    C110978  11.492   2.694   8.054 -0.1643 -0.1217  0.2561
 1219CHOL    C210979  11.440   2.697   7.660  0.2969 -0.0991  0.0912
 1220XCA    COO10980   4.546  10.343   8.743  0.1054 -0.0493 -0.0318
 1220XCA     C110981   4.431  10.642   8.436  0.0228  0.0857  0.0777
 1220XCA     C210982   4.622  10.718   7.923  0.2864 -0.2107 -0.2779
 1220XCA     C310983   4.993  10.674   7.688  0.0328  0.2641  0.0259
 1220XCA     C410984   5.222  10.417   7.373  0.0680  0.1384  0.0763
 1220XCA     C510985   5.484  10.408   7.127 -0.1555 -0.0429 -0.3667
 1220XCA     C610986   5.468  10.253   6.688 -0.2273 -0.0009  0.3805
 1221CHOL   ROH10987   5.840   1.309   6.530 -0.2262 -0.2197 -0.1069
 1221CHOL    R110988   5.885   1.588   6.508 -0.0444 -0.2335  0.0561
 1221CHOL    R210989   5.925   1.713   6.265  0.0250 -0.1128  0.1252
 1221CHOL    R310990   5.720   1.871   6.349  0.1311 -0.0309  0.2306
 1221CHOL    R410991   5.894   2.050   6.194 -0.0042 -0.1543 -0.0620
 1221CHOL    R510992   5.824   2.081   6.398  0.2077 -0.0114 -0.0118
 1221CHOL    C110993   5.684   2.394   6.231  0.0784 -0.1015 -0.0720
 1221CHOL    C210994   5.699   2.648   6.097 -0.0359  0.0542  0.1200
 1222PNCE   AM110995   3.600   2.580   5.362  0.0120 -0.1429  0.1234
 1222PNCE   AM210996   3.825   2.389   5.535  0.0270  0.0025 -0.0362
 1222PNCE   T1A10997   3.585   2.956   5.638 -0.0490 -0.0271 -0.0103
 1222PNCE   C2A10998   3.582   2.967   6.111 -0.2357  0.2901 -0.1395
 1222PNCE   C3A10999   3.409   2.793   6.475 -0.0808 -0.1821 -0.1941
 1222PNCE   C1B11000   3.999   2.733   5.849  0.1761 -0.1440 -0.2410
 1222PNCE   C2B11001   4.336   2.607   6.080 -0.0999  0.3987 -0.0337
 1222PNCE   C3B11002   4.760   2.361   6.282  0.2171  0.0592  0.2573
 1222PNCE   D4B11003   4.949   2.308   6.639  0.1802 -0.1632 -0.0153
 1222PNCE   C5B11004   5.346   2.382   6.832  0.0893  0.0244  0.1569
 1222PNCE   C6B11005   5.798   2.537   6.866  0.0055 -0.0254  0.0640
 1223PNCE   AM111006   4.029  10.846   4.414  0.2197  0.0177 -0.1715
 1223PNCE   AM211007   3.964  10.571   4.674 -0.0396  0.3500  0.2632
 1223PNCE   T1A11008   3.759  11.208   4.379 -0.1533 -0.1143 -0.2728
 1223PNCE   C2A11009   3.743  11.627   4.627 -0.0711 -0.0340 -0.1486
 1223PNCE   C3A11010   3.777  11.790   5.031 -0.3438  0.1659 -0.0189
 1223PNCE   C1B11011   3.652  10.847   4.829 -0.0946  0.1039  0.1710
 1223PNCE   C2B11012   3.712  11.163   4.977  0.1109  0.1777  0.0574
 1223PNCE   C3B11013   3.703  11.383   5.307 -0.1007  0.0563 -0.1447
 1223PNCE   D4B11014   3.500  11.252   5.625 -0.1262 -0.0128 -0.1339
 1223PNCE   C5B11015   3.319  11.538   6.020 -0.0011  0.2773 -0.1340
 1223PNCE   C6B11016   2.988  11.411   6.184  0.0947  0.2979 -0.3811
 1224PNCE   AM111017   7.651   0.826   5.459 -0.2546  0.2246 -0.1684
 1224PNCE   AM211018   8.023   0.922   5.363  0.0660  0.2212 -0.1448
 1224PNCE   T1A11019   7.429   0.725   5.864  0.1590  0.0959 -0.0208
 1224PNCE   C2A11020   7.252   0.728   6.356 -0.2399  0.2780 -0.0127
 1224PNCE   C3A11021   7.444   0.490   6.749  0.0268 -0.0517 -0.0566
 1224PNCE   C1B11022   8.223   0.938   5.764  0.0203  0.0509  0.1744
 1224PNCE   C2B11023   8.167   0.975   6.163  0.0670 -0.2746 -0.0234
 1224PNCE   C3B11024   8.169   0.950   6.598  0.0636  0.1131 -0.0697
 1224PNCE   D4B11025   7.910   1.121   6.905  0.2622 -0.2687 -0.1193
 1224PNCE   C5B11026   8.103   0.930   7.311  0.1748  0.1547  0.1982
 1224PNCE   C6B11027   8.146   0.487   7.421  0.5295 -0.3831 -0.1920
 1225XCA    COO11028  12.082   6.102   6.857  0.0062  0.1915  0.1060
 1225XCA     C111029  12.081   5.735   6.484  0.0991  0.1699  0.2313
 1225XCA     C211030  11.779   5.725   6.149 -0.1513 -0.0628  0.0131
 1225XCA     C311031  11.589   5.469   5.925  0.0810  0.1851 -0.2291
 1225XCA     C411032  11.298   5.316   5.661 -0.1379  0.0542 -0.2646
 1225XCA     C511033  11.080   5.007   5.452  0.0838  0.0307 -0.1955
 1225XCA     C611034  10.725   4.707   5.440  0.2253 -0.0210 -0.0130
 1226CHOL   ROH11035   9.336  14.925   8.849 -0.0579 -0.2955 -0.2182
 1226CHOL    R111036   9.380  15.109   8.638 -0.2287 -0.1575 -0.1350
 1226CHOL    R211037   9.630  15.153   8.528 -0.2523  0.1913 -0.0559
 1226CHOL    R311038   9.502  15.095   8.295 -0.1226  0.1261 -0.1123
 1226CHOL    R411039   9.759  15.209   8.212 -0.1755  0.3454  0.0013
 1226CHOL    R511040   9.561  15.275   8.148 -0.2080  0.2004 -0.0605
 1226CHOL    C111041   9.714  15.186   7.810 -0.0090  0.3740 -0.0184
 1226CHOL    C211042   9.798  15.560   7.637 -0.2082  0.5442  0.1121
 1227CHOL   ROH11043   2.123   5.734   6.444  0.2629  0.0850 -0.0899
 1227CHOL    R111044   2.200   5.473   6.365  0.1093 -0.0376  0.1529
 1227CHOL    R211045   2.463   5.404   6.316  0.0366 -0.1529 -0.0762
 1227CHOL    R311046   2.412   5.208   6.498  0.2109  0.0872  0.2447
 1227CHOL    R411047   2.686   5.157   6.408  0.0255 -0.2131 -0.2074
 1227CHOL    R511048   2.521   5.015   6.408 -0.0929 -0.0977  0.2524
 1227CHOL    C111049   2.768   4.829   6.632  0.1827 -0.0228  0.0175
 1227CHOL    C211050   2.874   4.488   6.575 -0.2251 -0.0382  0.0427
 1228XCA    COO11051   2.650   0.946   4.599  0.0419  0.0208  0.0318
 1228XCA     C111052   2.752   0.827   5.107  0.2368 -0.1641  0.0425
 1228XCA     C211053   2.874   0.573   5.407  0.1271 -0.0530 -0.2544
 1228XCA     C311054   3.041   0.546   5.790 -0.2311  0.1342  0.1547
 1228XCA     C411055   3.284   0.710   6.111 -0.1409 -0.2117 -0.0349
 1228XCA     C511056   3.492   0.760   6.496 -0.0475  0.2425 -0.2211
 1228XCA     C611057   3.897   0.645   6.579  0.2263  0.1509  0.2368
 1229CHOL   ROH11058  15.808   8.227   5.031  0.3725 -0.0298 -0.1813
 1229CHOL    R111059  15.827   8.031   5.234  0.1939 -0.0021 -0.1398
 1229CHOL    R211060  15.669   8.036   5.461  0.0842  0.0963 -0.2323
 1229CHOL    R311061  15.606   7.784   5.383  0.0282  0.0988 -0.2059
 1229CHOL    R411062  15.613   7.771   5.675  0.0190  0.1469 -0.1825
 1229CHOL    R511063  15.722   7.642   5.538  0.0020  0.0970 -0.1719
 1229CHOL    C111064  15.521   7.379   5.726 -0.0714  0.1787 -0.1288
 1229CHOL    C211065  15.516   7.123   6.084 -0.3674  0.0115  0.1204
 1230CHOL   ROH11066   1.477  15.563   8.485 -0.2955 -0.0756 -0.2587
 1230CHOL    R111067   1.441  15.631   8.212 -0.0423 -0.1143 -0.3050
 1230CHOL    R211068   1.644  15.734   8.056  0.1208 -0.1891 -0.1490
 1230CHOL    R311069   1.580  15.526   7.893  0.2137 -0.2037 -0.1662
 1230CHOL    R411070   1.705  15.725   7.716  0.1037 -0.1246 -0.1532
 1230CHOL    R511071   1.510  15.631   7.689  0.1495 -0.2184 -0.1504
 1230CHOL    C111072   1.679  15.524   7.365  0.1810 -0.1006 -0.1719
 1230CHOL    C211073   1.446  15.517   6.967 -0.1461  0.0536 -0.0448
 1231CHOL   ROH11074   8.424  12.031   9.123 -0.1035 -0.2939 -0.0729
 1231CHOL    R111075   8.642  12.096   8.955 -0.1269 -0.0369 -0.0091
 1231CHOL    R211076   8.852  11.921   8.909  0.0904  0.2048  0.0455
 1231CHOL    R311077   8.787  11.963   8.649  0.1162  0.1369  0.0280
 1231CHOL    R411078   9.053  11.839   8.641  0.0236 -0.0690  0.0765
 1231CHOL    R511079   8.994  12.026   8.546  0.1633 -0.0656 -0.0061
 1231CHOL    C111080   9.110  11.830   8.240  0.0089 -0.2922  0.0780
 1231CHOL    C211081   9.181  11.820   7.897 -0.0616  0.0606 -0.2347
 1232XCA    COO11082   3.355   3.051   9.451 -0.0423  0.0112  0.0469
 1232XCA     C111083   3.269   3.252   9.177 -0.1070  0.0856 -0.0955
 1232XCA     C211084   3.005   3.356   8.901 -0.0689 -0.0250  0.1238
 1232XCA     C311085   2.739   3.419   8.595  0.4500  0.1354 -0.0746
 1232XCA     C411086   2.563   3.584   8.219  0.0650 -0.0729  0.3051
 1232XCA     C511087   2.353   3.842   7.920 -0.1460  0.0543  0.0335
 1232XCA     C611088   2.173   3.726   7.637  0.0115  0.0362 -0.1033
 1233PNCE   AM111089   5.256  14.970   5.119  0.1418 -0.0102  0.1805
 1233PNCE   AM211090   5.143  14.681   4.877  0.0752 -0.3396  0.2955
 1233PNCE   T1A11091   5.203  14.836   5.489  0.1570  0.0049 -0.0643
 1233PNCE   C2A11092   5.011  14.833   5.955 -0.0523  0.0605 -0.1775
 1233PNCE   C3A11093   5.102  15.025   6.183 -0.0132  0.0496 -0.1624
 1233PNCE   C1B11094   4.781  14.872   5.197  0.0492 -0.1589  0.3356
 1233PNCE   C2B11095   4.667  15.007   5.680  0.2474  0.0251  0.2593
 1233PNCE   C3B11096   4.425  15.222   5.923 -0.3204  0.2097  0.2084
 1233PNCE   D4B11097   4.574  15.380   6.259  0.2078  0.1530  0.1129
 1233PNCE   C5B11098   4.645  15.594   6.664  0.2624 -0.1729  0.0099
 1233PNCE   C6B11099   4.781  15.948   6.852  0.0478  0.0123 -0.0942
 1234PNCE   AM111100   7.962   2.788   4.937  0.1690  0.0562  0.1169
 1234PNCE   AM211101   7.975   2.555   5.124 -0.2504  0.1069 -0.2101
 1234PNCE   T1A11102   7.784   3.075   5.171 -0.2808 -0.0182 -0.1791
 1234PNCE   C2A11103   7.484   3.280   5.431 -0.1444 -0.3411 -0.3357
 1234PNCE   C3A11104   7.531   3.524   5.908  0.0529  0.1127  0.1606
 1234PNCE   C1B11105   7.827   2.584   5.535  0.0511 -0.0938  0.0623
 1234PNCE   C2B11106   7.765   2.871   5.881 -0.1221  0.0226  0.3674
 1234PNCE   C3B11107   7.952   3.077   6.221  0.0408 -0.0362  0.0101
 1234PNCE   D4B11108   7.783   3.476   6.520 -0.1934  0.1827 -0.1926
 1234PNCE   C5B11109   7.650   3.403   6.918 -0.0758  0.2302 -0.1734
 1234PNCE   C6B11110   7.646   3.331   7.481 -0.2579 -0.2072 -0.4218
 1235PNCE   AM111111   7.901   2.048   5.378 -0.1729  0.0637 -0.0008
 1235PNCE   AM211112   8.202   1.956   5.482 -0.2763  0.2279  0.3472
 1235PNCE   T1A11113   7.768   1.763   5.747 -0.2242  0.0945  0.3562
 1235PNCE   C2A11114   7.604   1.803   6.108 -0.1889  0.2130 -0.0606
 1235PNCE   C3A11115   7.872   2.160   6.444 -0.1704 -0.3001  0.0818
 1235PNCE   C1B11116   8.055   2.134   5.888 -0.0005 -0.1151  0.1222
 1235PNCE   C2B11117   8.106   2.445   6.115 -0.1016 -0.1605 -0.0881
 1235PNCE   C3B11118   8.012   2.651   6.439  0.3292  0.1633  0.3213
 1235PNCE   D4B11119   8.059   2.604   6.777 -0.0563  0.1354 -0.2320
 1235PNCE   C5B11120   7.704   2.361   6.929  0.0915 -0.2997 -0.0793
 1235PNCE   C6B11121   7.503   2.002   6.941  0.3605  0.1445  0.0898
 1236PNCE   AM111122  13.988  12.725   4.922 -0.1257 -0.0023 -0.1819
 1236PNCE   AM211123  14.162  12.739   5.160 -0.1375 -0.0098  0.0457
 1236PNCE   T1A11124  13.751  13.008   5.222  0.0564  0.3327  0.1684
 1236PNCE   C2A11125  13.536  13.123   5.655 -0.2578  0.1647  0.5308
 1236PNCE   C3A11126  13.479  13.061   6.019  0.0988 -0.2216 -0.1814
 1236PNCE   C1B11127  14.398  12.709   5.489  0.1551  0.2195  0.0480
 1236PNCE   C2B11128  14.377  12.427   5.843  0.1167 -0.1170 -0.3408
 1236PNCE   C3B11129  14.576  12.163   6.078 -0.4365  0.4507 -0.0303
 1236PNCE   D4B11130  14.719  11.967   6.510  0.0568 -0.2384 -0.1404
 1236PNCE   C5B11131  14.678  11.520   6.597 -0.0236  0.1190  0.0270
 1236PNCE   C6B11132  15.012  11.211   6.576 -0.2325 -0.3182 -0.1001
 1237CHOL   ROH11133   7.488  14.520   5.800  0.0936  0.2783  0.3040
 1237CHOL    R111134   7.514  14.277   5.943  0.2776  0.2129  0.1672
 1237CHOL    R211135   7.739  14.217   6.093  0.2687  0.3637  0.2664
 1237CHOL    R311136   7.557  14.179   6.291  0.1827  0.0508  0.1301
 1237CHOL    R411137   7.788  14.020   6.373  0.2334  0.1594  0.1292
 1237CHOL    R511138   7.583  13.950   6.354  0.3077  0.0239 -0.0489
 1237CHOL    C111139   7.646  13.871   6.722  0.1322 -0.2532 -0.0787
 1237CHOL    C211140   7.600  13.895   7.147 -0.1647  0.0303  0.0977
 1238XCA    COO11141   1.062  11.982   8.225 -0.0720  0.1090  0.3011
 1238XCA     C111142   1.481  11.867   8.021  0.2956 -0.0990  0.1042
 1238XCA     C211143   1.342  11.748   7.541  0.2284  0.0833  0.0165
 1238XCA     C311144   1.109  11.708   7.208  0.0803 -0.1008  0.2672
 1238XCA     C411145   1.026  11.401   6.915 -0.1318  0.0986  0.1592
 1238XCA     C511146   1.244  11.071   6.924  0.2567 -0.2271 -0.1297
 1238XCA     C611147   1.524  10.912   7.251  0.1060 -0.1032 -0.1587
 1239XCA    COO11148   9.426   2.130   5.125 -0.2609  0.0439  0.0208
 1239XCA     C111149   9.536   2.132   5.590  0.0992 -0.1022  0.1004
 1239XCA     C211150   9.636   2.090   6.034 -0.4959  0.1372  0.2890
 1239XCA     C311151   9.933   2.190   6.334 -0.2751 -0.0398 -0.1475
 1239XCA     C411152  10.100   2.481   6.701 -0.1068  0.0487 -0.1058
 1239XCA     C511153  10.591   2.460   6.777 -0.1022 -0.0007  0.0712
 1239XCA     C611154  10.734   2.290   7.132 -0.0449  0.0662 -0.0714
 1240PNCE   AM111155   5.118   4.611   4.915  0.1547  0.0292  0.0670
 1240PNCE   AM211156   5.468   4.666   4.740  0.0326  0.1981 -0.3281
 1240PNCE   T1A11157   5.239   4.641   5.330  0.2597 -0.1228 -0.0885
 1240PNCE   C2A11158   5.239   4.782   5.758  0.0939 -0.1530  0.2599
 1240PNCE   C3A11159   5.624   4.804   5.862 -0.1220 -0.0606 -0.5151
 1240PNCE   C1B11160   5.778   4.510   4.650 -0.4596  0.0182 -0.1823
 1240PNCE   C2B11161   6.277   4.243   4.680 -0.1519 -0.1284 -0.3888
 1240PNCE   C3B11162   6.565   4.057   4.998  0.1542 -0.0517 -0.1905
 1240PNCE   D4B11163   6.572   3.889   5.375  0.0091  0.1597 -0.1445
 1240PNCE   C5B11164   6.289   4.003   5.743  0.0152 -0.1063  0.0763
 1240PNCE   C6B11165   6.412   4.387   6.024 -0.0427  0.0124  0.1178
 1241CHOL   ROH11166   8.248   2.406   5.492 -0.0171  0.0554 -0.1243
 1241CHOL    R111167   8.469   2.361   5.663 -0.0197  0.1063 -0.1082
 1241CHOL    R211168   8.543   2.540   5.860 -0.2077  0.0223  0.0379
 1241CHOL    R311169   8.522   2.321   6.021 -0.0683 -0.1131 -0.1229
 1241CHOL    R411170   8.725   2.489   6.150 -0.2953  0.0118  0.0920
 1241CHOL    R511171   8.746   2.280   6.094 -0.0562  0.0652 -0.0448
 1241CHOL    C111172   8.811   2.254   6.469 -0.2156 -0.1214 -0.0275
 1241CHOL    C211173   9.059   2.529   6.666  0.2585  0.0498 -0.1332
 1242PNCE   AM111174  14.744   8.696   4.374  0.0846  0.1448  0.0475
 1242PNCE   AM211175  14.700   8.918   4.709 -0.0366 -0.3937  0.0442
 1242PNCE   T1A11176  14.682   8.421   4.648 -0.1260  0.1030  0.0903
 1242PNCE   C2A11177  14.766   8.252   5.036  0.2699  0.0284 -0.0219
 1242PNCE   C3A11178  14.918   8.395   5.455  0.0282  0.1995 -0.0686
 1242PNCE   C1B11179  14.519   9.133   5.053  0.0264 -0.0418 -0.1990
 1242PNCE   C2B11180  14.370   9.102   5.397 -0.4570 -0.0288  0.0720
 1242PNCE   C3B11181  14.090   8.842   5.484  0.1040 -0.2777 -0.1168
 1242PNCE   D4B11182  14.112   8.390   5.465  0.1700 -0.4686 -0.1246
 1242PNCE   C5B11183  14.468   8.166   5.583 -0.3582  0.0149  0.2197
 1242PNCE   C6B11184  14.843   8.009   5.832  0.0410 -0.1438  0.1307
 1243XCA    COO11185   8.232   9.497   7.884 -0.0334 -0.1321  0.3547
 1243XCA     C111186   8.272   9.761   7.565  0.1585 -0.3572  0.0966
 1243XCA     C211187   8.152  10.039   7.242 -0.2688 -0.1672  0.1733
 1243XCA     C311188   8.167  10.393   6.934 -0.0350 -0.0143 -0.1315
 1243XCA     C411189   8.173  10.841   7.065 -0.1498 -0.0427 -0.1100
 1243XCA     C511190   8.410  11.202   7.077  0.3143  0.2974  0.3421
 1243XCA     C611191   8.707  11.318   7.186  0.0420  0.0062 -0.2153
 1244PNCE   AM111192   0.981   1.719   4.845 -0.0030 -0.0727  0.0229
 1244PNCE   AM211193   0.651   1.722   4.845  0.2502 -0.0873 -0.3427
 1244PNCE   T1A11194   0.917   1.737   5.268 -0.0838 -0.1706  0.2655
 1244PNCE   C2A11195   0.629   1.501   5.511  0.0102  0.0466  0.0471
 1244PNCE   C3A11196   0.359   1.285   5.851  0.0615 -0.0597  0.4254
 1244PNCE   C1B11197   0.355   1.860   5.151  0.1394 -0.2095  0.1176
 1244PNCE   C2B11198   0.509   2.001   5.535  0.0078 -0.0104 -0.2071
 1244PNCE   C3B11199   0.701   1.913   5.787  0.0724 -0.0096 -0.2606
 1244PNCE   D4B11200   1.088   1.821   5.777  0.2519 -0.2479 -0.2186
 1244PNCE   C5B11201   1.356   1.432   6.038 -0.1041 -0.2548  0.0533
 1244PNCE   C6B11202   1.475   1.195   6.381  0.0078  0.1454  0.3647
 1245PNCE   AM111203   1.097  14.191   4.428 -0.0116 -0.0177 -0.0905
 1245PNCE   AM211204   0.817  14.357   4.526 -0.0544  0.0190 -0.0993
 1245PNCE   T1A11205   1.159  13.853   4.757  0.2039  0.1167  0.1692
 1245PNCE   C2A11206   1.427  13.475   4.846 -0.0922  0.0928 -0.1658
 1245PNCE   C3A11207   1.885  13.413   4.835  0.2927  0.1689 -0.1256
 1245PNCE   C1B11208   0.938  14.328   4.924 -0.1264  0.0295 -0.0904
 1245PNCE   C2B11209   1.134  13.977   5.250  0.0030 -0.1434 -0.0117
 1245PNCE   C3B11210   1.153  13.795   5.572  0.1236  0.0226  0.0017
 1245PNCE   D4B11211   0.906  13.637   5.918 -0.2806  0.0114  0.0587
 1245PNCE   C5B11212   0.935  13.391   6.248 -0.3210 -0.0929  0.0690
 1245PNCE   C6B11213   0.650  13.278   6.517 -0.1603 -0.2020 -0.2785
 1246PNCE   AM111214  15.661   4.330   4.372 -0.0006 -0.1235  0.0295
 1246PNCE   AM211215  15.810   4.055   4.583 -0.1772  0.2494  0.2610
 1246PNCE   T1A11216  15.834   4.435   4.847 -0.0194 -0.1977 -0.0795
 1246PNCE   C2A11217  15.886   4.356   5.293 -0.2544 -0.2344 -0.0430
 1246PNCE   C3A11218  15.841   4.222   5.718 -0.0970  0.1572  0.0538
 1246PNCE   C1B11219  15.819   3.926   5.025 -0.1255  0.0699  0.1492
 1246PNCE   C2B11220  16.139   3.931   5.322 -0.0047  0.0390  0.0039
 1246PNCE   C3B11221  15.922   3.732   5.686  0.0470 -0.2929  0.0219
 1246PNCE   D4B11222  15.869   3.728   6.091  0.3613 -0.3778  0.0341
 1246PNCE   C5B11223  15.659   3.375   6.155 -0.1641 -0.3348 -0.0172
 1246PNCE   C6B11224  15.425   3.243   6.458  0.2850 -0.1936 -0.1944
 1247CHOL   ROH11225   3.397   1.960   8.829  0.1852  0.1906 -0.1853
 1247CHOL    R111226   3.279   1.807   8.622  0.4477  0.0113 -0.2077
 1247CHOL    R211227   3.036   1.873   8.508  0.1564 -0.5732  0.0311
 1247CHOL    R311228   3.178   1.864   8.277  0.0232  0.0051 -0.0897
 1247CHOL    R411229   2.898   1.863   8.191 -0.0359 -0.3028  0.1022
 1247CHOL    R511230   3.051   1.719   8.135  0.1582  0.0193 -0.2247
 1247CHOL    C111231   2.952   1.848   7.790 -0.2731  0.3975  0.0302
 1247CHOL    C211232   2.894   1.889   7.392  0.0849 -0.0105  0.1365
 1248XCA    COO11233  12.160   3.721   8.510  0.0465  0.2857  0.3303
 1248XCA     C111234  12.234   3.424   8.066  0.1962  0.2176  0.1670
 1248XCA     C211235  12.500   3.240   7.785  0.4043 -0.2103  0.1154
 1248XCA     C311236  12.635   3.429   7.384  0.0890 -0.0316  0.0720
 1248XCA     C411237  12.890   3.450   6.821  0.2751 -0.0752  0.0429
 1248XCA     C511238  13.263   3.478   6.803 -0.2292  0.1776  0.1376
 1248XCA     C611239  13.724   3.554   6.800 -0.0038  0.4290  0.1105
 1249XCA    COO11240  11.705  12.222   8.463 -0.1377 -0.0133  0.3527
 1249XCA     C111241  11.421  12.304   8.143  0.3542 -0.0249 -0.0519
 1249XCA     C211242  11.334  12.478   7.720 -0.1261 -0.0794 -0.0210
 1249XCA     C311243  11.073  12.800   7.598 -0.1602 -0.0540 -0.1011
 1249XCA     C411244  10.925  12.766   7.208 -0.1766  0.1711  0.0257
 1249XCA     C511245  11.139  13.057   6.900 -0.3791  0.0207 -0.0137
 1249XCA     C611246  11.215  13.155   6.545  0.2105  0.0727  0.0146
 1250CHOL   ROH11247  13.184   2.162   4.694  0.1532  0.5358 -0.0737
 1250CHOL    R111248  13.292   2.009   4.907  0.0048  0.3378 -0.1364
 1250CHOL    R211249  13.557   2.029   4.984 -0.0033  0.1440 -0.0384
 1250CHOL    R311250  13.448   2.078   5.228 -0.0569  0.0481 -0.0434
 1250CHOL    R411251  13.722   1.992   5.286 -0.0486  0.1209 -0.0170
 1250CHOL    R511252  13.540   1.908   5.370 -0.0319  0.0454 -0.0694
 1250CHOL    C111253  13.715   2.017   5.691 -0.1254  0.0174 -0.0092
 1250CHOL    C211254  13.764   2.008   6.100 -0.0472  0.0352 -0.1877
 1251XCA    COO11255   2.533  12.799   4.406 -0.1779 -0.1582 -0.3405
 1251XCA     C111256   2.715  12.973   4.895  0.0437  0.0485 -0.1770
 1251XCA     C211257   2.682  12.998   5.320 -0.0929  0.0505  0.3647
 1251XCA     C311258   2.680  12.983   5.755 -0.0477  0.0571 -0.0871
 1251XCA     C411259   2.679  12.757   6.171  0.0710  0.1524 -0.1682
 1251XCA     C511260   2.557  12.289   6.178 -0.2910 -0.0237  0.4446
 1251XCA     C611261   2.501  12.135   5.746 -0.0487  0.0072  0.0859
 1252CHOL   ROH11262   3.648   8.933   4.844 -0.0516  0.0284  0.1725
 1252CHOL    R111263   3.576   9.080   5.074  0.0146  0.0438  0.1827
 1252CHOL    R211264   3.672   9.020   5.326  0.1144  0.0832  0.1516
 1252CHOL    R311265   3.748   9.281   5.324  0.0804  0.0937  0.0984
 1252CHOL    R411266   3.765   9.201   5.606 -0.0080  0.1825  0.1298
 1252CHOL    R511267   3.655   9.371   5.526 -0.0034  0.1440  0.0387
 1252CHOL    C111268   3.889   9.551   5.766 -0.1113  0.2502  0.0672
 1252CHOL    C211269   3.843   9.443   6.162  0.1222  0.0649  0.2174
 1253CHOL   ROH11270  10.560   2.742   8.836  0.2159 -0.0360  0.0428
 1253CHOL    R111271  10.487   2.584   8.613  0.0440  0.1992 -0.0734
 1253CHOL    R211272  10.416   2.319   8.635  0.3577  0.0795 -0.3293
 1253CHOL    R311273  10.193   2.400   8.503  0.0644  0.0475  0.1272
 1253CHOL    R411274  10.177   2.107   8.503  0.4866  0.0194 -0.4660
 1253CHOL    R511275  10.165   2.238   8.329  0.0746  0.3738 -0.1814
 1253CHOL    C111276   9.828   2.060   8.302  0.2862 -0.0456 -0.1169
 1253CHOL    C211277   9.766   1.727   8.181  0.1228  0.0662 -0.1231
 1254XCA    COO11278  12.146  11.622   5.059  0.1505 -0.2728 -0.0387
 1254XCA     C111279  12.308  11.539   5.491 -0.1705 -0.1169  0.0270
 1254XCA     C211280  12.215  11.792   5.897  0.0878 -0.2970  0.0293
 1254XCA     C311281  12.304  11.920   6.206 -0.2675  0.1766 -0.1038
 1254XCA     C411282  12.630  11.982   6.569 -0.4785  0.0338 -0.1215
 1254XCA     C511283  12.941  12.262   6.476 -0.1093 -0.0487 -0.0474
 1254XCA     C611284  13.255  12.020   6.231  0.2897 -0.1008 -0.0209
 1255PNCE   AM111285   1.065   2.952   5.269 -0.1777  0.1759  0.0101
 1255PNCE   AM211286   0.941   2.782   5.043  0.2531 -0.2764  0.0314
 1255PNCE   T1A11287   1.138   3.112   5.722  0.3344  0.2240 -0.1804
 1255PNCE   C2A11288   1.278   3.220   6.114 -0.0705 -0.1631 -0.3167
 1255PNCE   C3A11289   1.161   3.604   6.313  0.0413  0.0762  0.3078
 1255PNCE   C1B11290   1.315   2.522   5.216  0.3386 -0.3679 -0.0454
 1255PNCE   C2B11291   1.315   2.075   5.158 -0.1243  0.1795  0.4342
 1255PNCE   C3B11292   1.745   1.774   5.034 -0.3845  0.1806  0.1680
 1255PNCE   D4B11293   1.875   1.387   5.237  0.1365 -0.4107 -0.1880
 1255PNCE   C5B11294   1.843   1.498   5.759  0.0013  0.0925  0.2870
 1255PNCE   C6B11295   1.920   1.573   6.170 -0.2704  0.0976  0.1866
 1256CHOL   ROH11296  13.722   1.978   7.377 -0.1279  0.3337 -0.0607
 1256CHOL    R111297  13.913   1.858   7.206  0.0072  0.2148  0.1721
 1256CHOL    R211298  13.892   1.867   6.931  0.1055 -0.1653  0.1581
 1256CHOL    R311299  14.143   1.970   6.947  0.0451 -0.0009  0.1059
 1256CHOL    R411300  14.128   1.853   6.679  0.1590 -0.3196  0.2131
 1256CHOL    R511301  14.280   1.812   6.830  0.1573 -0.0691  0.3051
 1256CHOL    C111302  14.501   1.942   6.547  0.1335 -0.2551  0.1963
 1256CHOL    C211303  14.724   1.916   6.190  0.4438  0.3692  0.2772
 1257XCA    COO11304  10.266   1.517   5.296  0.0396 -0.0493 -0.2908
 1257XCA     C111305  10.692   1.413   5.410  0.0782  0.1782 -0.5166
 1257XCA     C211306  10.962   1.208   5.688  0.1608 -0.3781  0.1133
 1257XCA     C311307  11.272   1.351   5.953  0.0279 -0.1386  0.1824
 1257XCA     C411308  11.609   1.138   6.218  0.0776  0.2791  0.1394
 1257XCA     C511309  11.943   0.964   6.433  0.0172 -0.0576  0.0784
 1257XCA     C611310  12.307   0.731   6.471  0.1444  0.2419 -0.1561
 1258PNCE   AM111311   0.777   8.464   4.920  0.0629  0.5266 -0.1947
 1258PNCE   AM211312   0.740   8.139   4.891 -0.0806  0.0293 -0.0713
 1258PNCE   T1A11313   0.741   8.522   5.355 -0.2902 -0.0815  0.0442
 1258PNCE   C2A11314   0.787   8.617   5.792  0.1142  0.0995 -0.1658
 1258PNCE   C3A11315   1.081   8.869   6.112 -0.2102 -0.0758  0.0618
 1258PNCE   C1B11316   0.836   8.036   5.267 -0.2271  0.1483 -0.1541
 1258PNCE   C2B11317   0.789   7.879   5.631 -0.2754 -0.4542  0.2215
 1258PNCE   C3B11318   0.833   7.972   6.075  0.1944 -0.2847  0.0285
 1258PNCE   D4B11319   1.010   8.067   6.450  0.2307 -0.0734  0.3446
 1258PNCE   C5B11320   0.765   8.332   6.691 -0.1290  0.0802 -0.0843
 1258PNCE   C6B11321   0.541   8.716   6.952  0.0887 -0.1326  0.0971
 1259CHOL   ROH11322   9.150   8.312   7.904  0.1562  0.1530 -0.0228
 1259CHOL    R111323   9.111   8.377   7.632  0.0739 -0.0115 -0.0516
 1259CHOL    R211324   9.265   8.269   7.429  0.0935 -0.0400 -0.0202
 1259CHOL    R311325   9.023   8.199   7.327  0.1108 -0.2193  0.0573
 1259CHOL    R411326   9.214   8.139   7.113  0.0897 -0.0868 -0.0007
 1259CHOL    R511327   9.035   8.262   7.097 -0.0067 -0.2163  0.0508
 1259CHOL    C111328   8.958   7.998   6.833  0.1037 -0.2824  0.0834
 1259CHOL    C211329   8.864   8.073   6.441  0.0125  0.3861  0.1939
 1260XCA    COO11330   6.444   4.123   8.004 -0.0094  0.2461 -0.1387
 1260XCA     C111331   6.259   4.122   7.655  0.0089 -0.0487  0.1234
 1260XCA     C211332   6.180   4.408   7.335 -0.4857  0.0821 -0.1662
 1260XCA     C311333   5.940   4.548   7.009 -0.0347  0.1467  0.0394
 1260XCA     C411334   6.029   4.931   6.740  0.1365 -0.1545  0.2727
 1260XCA     C511335   6.006   5.377   6.604 -0.0471  0.0605  0.0515
 1260XCA     C611336   5.931   5.738   6.314  0.3588 -0.2863 -0.2512
 1261XCA    COO11337   3.091  13.378   8.234  0.1146 -0.4217 -0.3438
 1261XCA     C111338   3.104  13.341   7.895 -0.1013  0.0458 -0.2091
 1261XCA     C211339   3.088  13.108   7.557  0.2258 -0.0628  0.0189
 1261XCA     C311340   2.940  13.154   7.293 -0.0710  0.2614 -0.0499
 1261XCA     C411341   2.524  13.336   7.100  0.0027  0.0277  0.1218
 1261XCA     C511342   2.086  13.287   6.956 -0.0908  0.0625  0.0025
 1261XCA     C611343   1.741  12.975   7.220  0.0304 -0.0813  0.0387
 1262PNCE   AM111344   1.868  14.119   8.599  0.1466  0.1862  0.0538
 1262PNCE   AM211345   1.711  14.272   8.375 -0.0768 -0.3183  0.1187
 1262PNCE   T1A11346   1.579  13.834   8.377 -0.0605 -0.0575  0.2854
 1262PNCE   C2A11347   1.210  13.714   8.210 -0.1658  0.0307  0.0185
 1262PNCE   C3A11348   0.785  13.783   7.936  0.3508 -0.2071  0.0650
 1262PNCE   C1B11349   1.721  14.302   8.008 -0.0456 -0.1657  0.0829
 1262PNCE   C2B11350   1.536  14.313   7.599 -0.0873  0.2792 -0.1402
 1262PNCE   C3B11351   1.675  14.125   7.173 -0.0972 -0.1335  0.0549
 1262PNCE   D4B11352   1.746  14.390   6.787 -0.0987  0.2788  0.1169
 1262PNCE   C5B11353   2.176  14.561   6.589  0.2314 -0.0872 -0.1020
 1262PNCE   C6B11354   2.517  14.458   6.319 -0.0735 -0.3473 -0.1296
 1263XCA    COO11355  11.810   4.982   7.703 -0.2299  0.1232  0.1246
 1263XCA     C111356  11.639   4.833   7.300  0.0376  0.0812  0.0529
 1263XCA     C211357  11.594   4.837   6.825 -0.1000 -0.0539  0.0087
 1263XCA     C311358  11.348   4.715   6.539 -0.0277 -0.0837  0.3611
 1263XCA     C411359  11.566   4.583   6.191 -0.0313 -0.2129  0.2551
 1263XCA     C511360  12.027   4.444   5.995 -0.4201 -0.0927 -0.0966
 1263XCA     C611361  12.004   3.963   5.876  0.2045 -0.2802  0.0711
 1264XCA    COO11362   0.948  10.338   4.780  0.0260  0.1603 -0.1888
 1264XCA     C111363   1.207  10.172   5.076 -0.2078  0.2165 -0.5655
 1264XCA     C211364   1.507  10.171   5.388 -0.1422 -0.1001  0.0524
 1264XCA     C311365   1.910  10.314   5.477  0.0514 -0.1565 -0.1433
 1264XCA     C411366   2.262  10.135   5.266  0.3278  0.0278 -0.1658
 1264XCA     C511367   2.327   9.688   5.223 -0.0552 -0.5595 -0.2375
 1264XCA     C611368   2.775   9.500   5.397  0.2348 -0.0831  0.0876
 1265WN      WN11369   8.835   1.319   2.836 -0.0837 -0.1265  0.4022
 1266WN      WN11370   9.946   8.686   1.696 -0.1563 -0.0775  0.0958
 1267WN      WN11371   5.143  13.535  11.171  0.0438  0.0876  0.0262
 1268WN      WN11372   9.827  14.713  12.454  0.1560 -0.1915  0.0654
 1269WN      WN11373   7.232   6.391   0.070  0.3066  0.1072  0.1356
 1270WN      WN11374   9.596   2.571   0.861  0.0498  0.1479 -0.1300
 1271WN      WN11375  12.639   1.236   0.291 -0.0811  0.1605  0.2744
 1272WN      WN11376   5.918  12.134   4.158 -0.1904  0.1616 -0.1682
 1273WN      WN11377   8.007  14.837   3.001  0.0904 -0.0518 -0.0210
 1274WN      WN11378   8.482  12.963   0.072 -0.0543 -0.0625  0.3037
 1275WN      WN11379   9.784   7.860  12.318  0.1210  0.1218 -0.0082
 1276WN      WN11380   7.317   6.256  10.842 -0.3327 -0.1860 -0.3626
 1277WN      WN11381   4.489  12.966  12.719 -0.1073  0.2486 -0.0910
 1278WN      WN11382   4.768   8.748   8.970  0.1014 -0.3584  0.2230
 1279WN      WN11383  15.437   9.766   3.814  0.2384  0.1759 -0.1939
 1280WN      WN11384  14.001   8.908   9.077 -0.1075 -0.1766  0.0547
 1281WN      WN11385   4.154   4.214   4.925 -0.1230  0.2266 -0.3043
 1282WN      WN11386   4.186  15.524   3.053 -0.0543  0.0287 -0.4846
 1283WN      WN11387  11.266   2.924  11.864 -0.2924  0.0295 -0.0952
 1284WN      WN11388   8.891   7.300   0.266  0.0593  0.0462 -0.1614
 1285WN      WN11389  13.546   1.875  12.542 -0.1482 -0.0949 -0.1228
 1286WN      WN11390   3.126   9.725   8.887 -0.1884 -0.3021  0.1602
 1287WN      WN11391  12.816   5.054  10.090  0.0424 -0.1656  0.3611
 1288WN      WN11392   6.116  10.893   9.787  0.3103  0.3200 -0.3577
 1289WN      WN11393  11.249  13.071   9.127  0.2423  0.0099  0.2197
 1290WN      WN11394   2.246   9.581   9.350 -0.0792 -0.1727  0.0004
 1291WN      WN11395   6.436   5.956  10.792 -0.1283  0.1943  0.2246
 1292WN      WN11396   9.097   5.525  12.515  0.2227 -0.3061 -0.1035
 1293WN      WN11397   8.983   2.943  10.214  0.0656  0.2747 -0.0362
 1294WN      WN11398   3.776   2.674  11.193  0.0526  0.4388  0.1200
 1295WN      WN11399   7.283   7.148  12.046 -0.2613  0.0233  0.0634
 1296WN      WN11400   3.792  14.595   9.695  0.1629 -0.1837  0.1083
 1297WN      WN11401  10.204  14.411   8.970 -0.1031 -0.1026  0.2195
 1298WN      WN11402  12.232   9.899  10.914  0.2221  0.0147  0.1283
 1299WN      WN11403  12.541  12.759   8.466 -0.0716  0.0541  0.0230
 1300WN      WN11404  12.484  10.425  11.904  0.1674 -0.0757  0.1163
 1301WN      WN11405  12.103   5.241   9.964  0.3624  0.1758 -0.4832
 1302WN      WN11406  10.974  15.661   0.268 -0.0339 -0.0793  0.4147
 1303WN      WN11407   6.539  10.491   9.327  0.2329  0.0803  0.1792
 1304WN      WN11408   3.960   5.737   1.517 -0.3574  0.2309 -0.2622
 1305WN      WN11409   2.276  11.598   9.191 -0.1999 -0.0360 -0.5277
 1306WN      WN11410   7.979   5.988   8.885 -0.0122 -0.0750  0.1506
 1307WN      WN11411  14.800   6.914  10.158 -0.3111 -0.2174 -0.0368
 1308WN      WN11412   4.929  15.636   1.248 -0.0406  0.2604  0.0857
 1309WN      WN11413  12.234   0.597   1.870  0.3336  0.0891  0.2738
 1310WN      WN11414   1.017   1.677  11.703 -0.0539 -0.0538 -0.2866
 1311WN      WN11415   9.594  15.374   5.246  0.2292  0.1986 -0.2317
 1312WN      WN11416   6.192  15.663   3.964 -0.3080  0.1095 -0.1133
 1313WN      WN11417   3.011   7.111   8.285 -0.0820  0.0505  0.0395
 1314WN      WN11418   9.416  12.094   1.960  0.1758  0.0008  0.1428
 1315WN      WN11419  14.773  11.865  10.437  0.0690  0.1735 -0.0147
 1316WN      WN11420   2.852   7.779  13.223 -0.1445 -0.3090 -0.0564
 1317WN      WN11421   8.925   6.988   8.587 -0.1605 -0.3268 -0.0724
 1318WN      WN11422  15.066   7.239   8.817  0.4503 -0.2524  0.1634
 1319WN      WN11423  10.691  11.285  13.539  0.0291  0.0490 -0.0942
 1320WN      WN11424  14.318   2.508   9.182 -0.0164 -0.2791 -0.0633
 1321WN      WN11425   4.759  15.132  13.401  0.0794 -0.0475  0.1092
 1322WN      WN11426  11.771   0.381   3.200 -0.2454  0.1128 -0.1897
 1323WN      WN11427   4.563  13.252  12.278 -0.1678  0.0085  0.0507
 1324WN      WN11428   5.123  14.274   4.329 -0.3317 -0.3404 -0.0471
 1325WN      WN11429   9.068   0.039  11.020  0.0055  0.0011  0.0801
 1326WN      WN11430   4.013   3.302  13.337  0.0878 -0.6067  0.2311
 1327WN      WN11431   2.576   6.511   0.306 -0.1129 -0.0357 -0.0562
 1328WN      WN11432  10.674   5.303   9.172 -0.1652  0.1748 -0.0205
 1329WN      WN11433  11.103  11.655  13.493  0.1756  0.2433  0.0389
 1330WN      WN11434   6.972   3.882   0.628 -0.1850  0.0140 -0.3012
 1331WN      WN11435  10.553   5.157  11.799  0.0416 -0.0785  0.3935
 1332WN      WN11436   3.684   6.451  13.090 -0.1328 -0.3353 -0.1580
 1333WN      WN11437   1.284  12.571   1.924 -0.0746  0.1236  0.3189
 1334WN      WN11438   2.501   3.277  10.870  0.3912  0.1564 -0.1229
 1335WN      WN11439   0.163   1.844   2.417  0.0591  0.1182 -0.6542
 1336WN      WN11440   8.777   8.246   0.165 -0.0130  0.0264  0.1053
 1337WN      WN11441  11.412   5.370  10.489 -0.1889  0.1561 -0.2564
 1338WN      WN11442  13.589  12.377  10.891  0.0938  0.1500 -0.3901
 1339WN      WN11443   4.155  13.288  13.130  0.0862  0.3590 -0.2079
 1340WN      WN11444  10.402   7.433  12.894  0.2275 -0.0044 -0.0924
 1341WN      WN11445   6.933   0.814   0.310  0.3640 -0.2449  0.0881
 1342WN      WN11446   2.224  15.136   1.636 -0.0370 -0.1480 -0.2888
 1343WN      WN11447   1.784   4.785  10.239 -0.1623 -0.1455 -0.4796
 1344WN      WN11448   7.877   1.373   5.429 -0.0489 -0.3029 -0.1491
 1345WN      WN11449  14.793   6.732  13.041  0.0570  0.0032  0.1424
 1346WN      WN11450   5.696  15.772   4.124 -0.2321  0.0226  0.2745
 1347WN      WN11451  11.546  10.603   2.361 -0.2565  0.1401 -0.1919
 1348WN      WN11452  15.863   8.093  13.321  0.2889  0.0889 -0.2577
 1349WN      WN11453   9.060  10.056   2.245 -0.2066 -0.1329 -0.2599
 1350WN      WN11454   8.013   6.354   1.752 -0.0804 -0.0363 -0.0880
 1351WN      WN11455   0.398  10.525  10.141  0.1383 -0.0328 -0.0860
 1352WN      WN11456   5.878   9.201   8.886 -0.2743  0.2514  0.0495
 1353WN      WN11457  12.441  12.111   2.253  0.2943 -0.0022  0.5763
 1354WN      WN11458   7.421  11.677   2.967  0.0713  0.2308  0.4002
 1355WN      WN11459   7.748   5.227   0.099  0.1154 -0.1923  0.1331
 1356WN      WN11460   7.028   6.431   1.180  0.0141 -0.5764  0.0392
 1357WN      WN11461   8.808  11.878  12.280  0.3214  0.0812 -0.2061
 1358WN      WN11462   1.891   9.752   9.766 -0.0932 -0.0559  0.1384
 1359WN      WN11463  12.639   2.676  10.960  0.1294 -0.1479 -0.1398
 1360WN      WN11464  12.368  13.898  12.711 -0.0012  0.1729  0.2737
 1361WN      WN11465   4.723  11.135   1.299 -0.0877 -0.0850  0.0533
 1362WN      WN11466  11.897   3.415   3.685 -0.1252  0.0648 -0.1249
 1363WN      WN11467  14.839   7.698   2.255 -0.1888 -0.1017 -0.1555
 1364WN      WN11468   6.521  10.213   9.748  0.1400  0.3299 -0.2425
 1365WN      WN11469   5.821   8.190   2.089  0.1942  0.2485  0.1625
 1366WN      WN11470  13.179   8.536   9.424  0.3229  0.3084  0.0057
 1367WN      WN11471  13.607  13.654   2.296  0.1003 -0.0923 -0.1843
 1368WN      WN11472   3.470  12.632   9.872  0.2080 -0.2414 -0.1405
 1369WN      WN11473   5.181   8.829   0.925  0.1363 -0.0546  0.0731
 1370WN      WN11474   2.415   4.270   0.307  0.2292 -0.0869 -0.0927
 1371WN      WN11475   2.559  10.909  13.098 -0.0458 -0.4747 -0.3487
 1372WN      WN11476   0.086   7.880   9.998 -0.1514 -0.0622 -0.2940
 1373WN      WN11477   2.796   0.368  10.920  0.0733  0.2600  0.0440
 1374WN      WN11478   6.668   5.151   0.039 -0.1699 -0.1712  0.1958
 1375WN      WN11479  11.842   4.872   0.413 -0.0764 -0.0242  0.3668
 1376WN      WN11480  15.654   5.188   2.269 -0.1569  0.0740  0.0128
 1377WN      WN11481   5.360   1.956   3.379 -0.0642 -0.0137  0.2157
 1378WN      WN11482   7.306   2.691  11.425  0.1275  0.1940 -0.1434
 1379WN      WN11483   3.270  13.403  10.123 -0.1913  0.0406 -0.2530
 1380WN      WN11484   5.547   0.746  12.265  0.0003  0.1184  0.0303
 1381WN      WN11485   2.314   7.721  10.474  0.2497  0.0247  0.1659
 1382WN      WN11486   6.077  10.328   2.058  0.0650 -0.0412 -0.1337
 1383WN      WN11487   7.995  12.595   1.654  0.1059 -0.2415 -0.0306
 1384WN      WN11488   7.940  10.858   4.401  0.2245 -0.3887 -0.0109
 1385WN      WN11489   6.505  11.374  10.689 -0.0838 -0.2772 -0.2017
 1386WN      WN11490   7.493   4.229  12.829  0.1287  0.1025 -0.0737
 1387WN      WN11491   1.641   3.009  13.370  0.2592  0.2431  0.0623
 1388WN      WN11492   7.976  12.607   9.627 -0.3042 -0.0028  0.0100
 1389WN      WN11493  13.380   6.280   0.328 -0.1136 -0.3631  0.0573
 1390WN      WN11494   7.648  10.657   2.930 -0.0269 -0.0019  0.0787
 1391WN      WN11495  10.818  11.391   4.421  0.2108  0.0358 -0.0414
 1392WN      WN11496   6.107  13.799   1.111  0.1362 -0.0006 -0.1983
 1393WN      WN11497  11.425   3.664  13.054 -0.1684 -0.1205 -0.1652
 1394WN      WN11498   2.189  15.084  11.208  0.0830  0.0355  0.1620
 1395WN      WN11499  12.609   2.062   9.485  0.0868 -0.0973 -0.2611
 1396WN      WN11500   7.787  13.310   1.076  0.0583  0.0601  0.0194
 1397WN      WN11501  13.262   0.930  11.713  0.0493  0.0273  0.0496
 1398WN      WN11502  13.425   1.295  10.141  0.2484 -0.4481 -0.1551
 1399WN      WN11503   7.700   7.178   1.152 -0.2262 -0.0860  0.3224
 1400WN      WN11504  14.367   5.583  12.205  0.0414 -0.0948  0.0948
 1401WN      WN11505   6.658  13.646  11.835 -0.0043  0.1998  0.0495
 1402WN      WN11506   4.830   9.702   9.686 -0.1739  0.0899  0.0905
 1403WN      WN11507   9.904  12.548  11.403 -0.4092 -0.1667 -0.1308
 1404WN      WN11508  11.390   9.075   1.198  0.0594  0.1571  0.2702
 1405WN      WN11509  12.714  13.326   1.930 -0.0803  0.1341 -0.2122
 1406WN      WN11510   3.431   6.234   9.410 -0.1179  0.1583  0.0889
 1407WN      WN11511   0.282   2.182   0.375 -0.3360 -0.1136  0.1571
 1408WN      WN11512  13.791   9.766   0.047  0.0630  0.1744  0.0425
 1409WN      WN11513   5.190   5.223  10.575 -0.2665  0.1555  0.1206
 1410WN      WN11514   3.648   9.411  12.552 -0.0198  0.1575 -0.1504
 1411WN      WN11515   9.190   6.038  12.475 -0.1582 -0.1657 -0.4234
 1412WN      WN11516  12.751   3.510   0.680 -0.0061  0.2255  0.0404
 1413WN      WN11517   8.438   9.738  12.763 -0.1351 -0.3185  0.1827
 1414WN      WN11518   9.462   7.133   1.877 -0.1690 -0.2118  0.0781
 1415WN      WN11519   7.336   2.003  13.387  0.3258 -0.0650  0.0122
 1416WN      WN11520   8.200   8.536   2.797  0.1812  0.0873  0.3698
 1417WN      WN11521  11.592  15.681   1.937 -0.1930 -0.0095  0.1262
 1418WN      WN11522   4.450  10.961   3.983 -0.0275  0.1673  0.0935
 1419WN      WN11523  13.044  11.383  10.155 -0.1700  0.0438 -0.0638
 1420WN      WN11524   0.255  12.740   4.222 -0.0293  0.0329 -0.0590
 1421WN      WN11525   6.639  12.178  13.325 -0.2048 -0.1998 -0.0170
 1422WN      WN11526   4.471  13.742  12.064  0.2729  0.0634 -0.1227
 1423WN      WN11527   9.906   3.222   0.935  0.1558 -0.0115  0.1479
 1424WN      WN11528   2.331   8.314  13.304  0.2349  0.1329 -0.1354
 1425WN      WN11529   2.896   9.405   1.027 -0.1799 -0.1405  0.2845
 1426WN      WN11530   4.188  10.001   2.020  0.4805  0.0912  0.4288
 1427WN      WN11531   7.412   7.692  10.389  0.0650  0.0511  0.1084
 1428WN      WN11532   6.015   3.383  12.629  0.2218 -0.0020 -0.1478
 1429WN      WN11533   0.953   7.230   0.719 -0.1749  0.4125 -0.0642
 1430WN      WN11534   0.745   9.925  11.664 -0.0065  0.0319  0.1473
 1431WN      WN11535  13.748   0.633   9.566  0.2609 -0.0225  0.0163
 1432WN      WN11536  10.241   2.673   4.748  0.0328 -0.0454  0.5199
 1433WN      WN11537  13.956   8.891   0.589 -0.0721  0.2019 -0.1756
 1434WN      WN11538   2.628   8.255   3.282 -0.0858  0.0036 -0.0449
 1435WN      WN11539  15.289  10.159   2.299 -0.1069 -0.1486  0.1671
 1436WN      WN11540   3.772  12.773  13.462 -0.1698 -0.2602 -0.0993
 1437WN      WN11541  12.302   7.320  13.365  0.5191 -0.2947 -0.3163
 1438WN      WN11542   7.522   9.297   2.833  0.0142 -0.1702 -0.0138
 1439WN      WN11543  13.628   0.986  10.732  0.0151 -0.0967 -0.1300
 1440WN      WN11544   7.809   3.234   0.027 -0.0265 -0.2578 -0.0803
 1441WN      WN11545   8.985   1.714   0.995  0.0534 -0.0030 -0.2089
 1442WN      WN11546   2.830  13.266   3.070  0.1118 -0.1424  0.0037
 1443WN      WN11547   5.243   1.868   2.589 -0.2626  0.1328  0.1277
 1444WN      WN11548   9.253   1.227   5.212  0.1276  0.1500  0.0171
 1445WN      WN11549   8.133  11.610   1.782  0.0912  0.0045  0.1376
 1446WN      WN11550   6.229  15.601   9.684  0.2358  0.1351  0.0194
 1447WN      WN11551  11.794   0.884   2.877 -0.1324  0.0235  0.0403
 1448WN      WN11552   4.152   3.614  11.835  0.2403  0.1806 -0.0036
 1449WN      WN11553  11.747   7.258   2.202  0.2117  0.0009  0.0368
 1450WN      WN11554  10.237  11.853   2.969 -0.0076  0.0165 -0.2329
 1451WN      WN11555   7.386  10.495   3.384 -0.0813 -0.0849 -0.0971
 1452WN      WN11556  12.019   7.084   7.110 -0.4164 -0.2192 -0.2698
 1453WN      WN11557  15.881   7.724  10.626  0.1974  0.1216  0.0168
 1454WN      WN11558  14.531  11.969   4.330  0.1748  0.1825 -0.0282
 1455WN      WN11559   3.059   7.728   0.220  0.1442 -0.0465 -0.2191
 1456WN      WN11560   2.224   8.842   2.832  0.1810 -0.2401  0.3172
 1457WN      WN11561  10.831  15.682  10.437  0.2058 -0.0263 -0.1444
 1458WN      WN11562   9.714  12.228   3.037  0.2491  0.0862 -0.2222
 1459WN      WN11563  13.107   3.915   9.674  0.1096  0.2607  0.2459
 1460WN      WN11564   5.090   0.034   2.390  0.0681  0.0472  0.1347
 1461WN      WN11565  13.526  14.233  13.316  0.1097 -0.0152  0.1653
 1462WN      WN11566   2.023   0.862   9.805  0.1189 -0.1092  0.0807
 1463WN      WN11567   7.370  10.891  10.455 -0.0204  0.2636  0.0430
 1464WN      WN11568   4.264   0.577  11.273 -0.2969  0.4811  0.1126
 1465WN      WN11569   2.450   6.936   1.324 -0.1139 -0.3009  0.1064
 1466WN      WN11570   7.911   3.961   9.347 -0.3359 -0.0163  0.0119
 1467WN      WN11571   1.474   6.067   9.132 -0.0514 -0.2521  0.0220
 1468WN      WN11572   2.798   1.522   4.066 -0.0478  0.0016 -0.0620
 1469WN      WN11573   0.199   6.381   3.001  0.0209 -0.1898  0.0786
 1470WN      WN11574  10.208   0.661   2.842  0.2547  0.0955 -0.0721
 1471WN      WN11575  13.637   1.434  13.420 -0.0926 -0.2864 -0.0154
 1472WN      WN11576   8.249  14.905   1.849 -0.1188 -0.1050 -0.3078
 1473WN      WN11577  15.816  11.325   8.894 -0.0799  0.1263  0.0085
 1474WN      WN11578   8.791   7.083   2.423 -0.3398 -0.2200  0.0983
 1475WN      WN11579   5.096  13.873  10.690  0.1317 -0.0730 -0.0089
 1476WN      WN11580  11.007  15.346   9.469 -0.0923 -0.1094  0.0744
 1477WN      WN11581  13.247  14.709   1.720 -0.0023  0.1208  0.0600
 1478WN      WN11582   3.209  14.792   0.804 -0.0091 -0.0149  0.0032
 1479WN      WN11583   2.211  12.799   0.577  0.0127  0.0030  0.2452
 1480WN      WN11584   8.071  11.827   0.091 -0.0792 -0.0666 -0.2899
 1481WN      WN11585  11.835   6.072  13.066  0.0302  0.0900 -0.2265
 1482WN      WN11586   8.474   2.331   1.979  0.1242 -0.0465  0.0486
 1483WN      WN11587   9.150   3.546   9.982  0.1071 -0.1127  0.0253
 1484WN      WN11588   6.215   4.110  11.875 -0.1749  0.0489  0.1148
 1485WN      WN11589   9.733   6.803  12.811  0.1759  0.1814  0.0374
 1486WN      WN11590  10.947  11.845   1.969  0.1160  0.0410 -0.1133
 1487WN      WN11591   1.894  14.577  11.941 -0.2212  0.1762 -0.4718
 1488WN      WN11592   9.431  10.145  12.312 -0.2722  0.4212 -0.2381
 1489WN      WN11593   4.504   4.924   2.494  0.1366 -0.0258  0.1282
 1490WN      WN11594   3.198  14.857   2.476  0.1159  0.1762  0.0019
 1491WN      WN11595  15.416  11.325  11.929 -0.0561 -0.0349  0.2874
 1492WN      WN11596   8.586   7.763   0.092 -0.1023  0.1525 -0.1797
 1493WN      WN11597   9.338   6.580   3.127 -0.1079  0.2991  0.0893
 1494WN      WN11598   1.995   9.345   8.948 -0.0796 -0.0040 -0.0750
 1495WN      WN11599   5.130   5.686   8.577  0.0202 -0.1510 -0.4154
 1496WN      WN11600   1.498  11.163   1.460  0.2945 -0.0769  0.0374
 1497WN      WN11601   4.966  13.215   0.692 -0.1177  0.0370 -0.2642
 1498WN      WN11602  13.051   2.742  12.694  0.0020  0.2492 -0.1869
 1499WN      WN11603   1.544   2.644  12.261 -0.3098 -0.3640  0.2364
 1500WN      WN11604  13.284   3.681  12.086 -0.0140  0.4102  0.1519
 1501WN      WN11605   3.676  11.655   2.796  0.1607 -0.0415  0.0994
 1502WN      WN11606  15.399  11.260   3.409  0.0727  0.1827 -0.0210
 1503WN      WN11607   8.265   3.719   3.602 -0.1535  0.0268  0.0374
 1504WN      WN11608   4.555  13.451  12.871  0.2126  0.2394  0.2268
 1505WN      WN11609   3.862   7.440   1.644  0.0573  0.1420  0.2036
 1506WN      WN11610  10.710   2.800  11.694 -0.1127 -0.1336  0.3819
 1507WN      WN11611   8.191  15.742  10.481  0.1381  0.3012  0.3647
 1508WN      WN11612   5.687   0.003   1.228  0.2719  0.0586  0.0826
 1509WN      WN11613   5.809   2.399  12.395 -0.2234  0.0031  0.0245
 1510WN      WN11614   5.303   6.888   2.056  0.0574  0.1069 -0.1180
 1511WN      WN11615  15.310  14.937  10.941 -0.0649  0.4456  0.2827
 1512WN      WN11616   1.853  13.687  10.185 -0.3127  0.0391 -0.3302
 1513WN      WN11617   3.875   7.451  12.471  0.0116 -0.0672 -0.1756
 1514WN      WN11618   5.794   0.468   2.107  0.3353  0.1384 -0.1647
 1515WN      WN11619   8.627   7.928   0.581  0.1050  0.0081 -0.0610
 1516WN      WN11620   3.821   7.660  10.043  0.0409 -0.1909  0.3300
 1517WN      WN11621   9.812   1.587   1.571  0.0202 -0.0257  0.1937
 1518WN      WN11622   7.145  14.074   4.155 -0.0945  0.1243  0.2186
 1519WN      WN11623  12.432   4.605   2.673 -0.2026  0.0210  0.1082
 1520WN      WN11624  11.595   8.127  11.667 -0.1200  0.1845  0.1369
 1521WN      WN11625  13.882  15.456  10.591  0.2134 -0.0228 -0.2423
 1522WN      WN11626   4.814  15.694  13.428 -0.2228  0.1632 -0.0845
 1523WN      WN11627   1.027   8.183   0.567 -0.1605 -0.0082  0.2078
 1524WN      WN11628   3.817   7.360   0.640 -0.1186 -0.1621 -0.2355
 1525WN      WN11629   2.548   2.891   3.532 -0.1938 -0.0274  0.2889
 1526WN      WN11630  11.871   2.061  13.138 -0.0632 -0.1611  0.2599
 1527WN      WN11631   1.264   7.281  11.953 -0.0489  0.1236  0.2703
 1528WN      WN11632   4.021   7.239   4.220 -0.3170 -0.0119 -0.5091
 1529WN      WN11633  10.785   4.466  12.701  0.2001  0.0084  0.2145
 1530WN      WN11634   3.982   4.367  10.755 -0.0341  0.1689  0.2513
 1531WN      WN11635   7.665   5.549  10.317 -0.1767 -0.1426 -0.1529
 1532WN      WN11636   5.389   5.792  13.473 -0.1597 -0.3716  0.1529
 1533WN      WN11637   2.548  10.287  12.324  0.0268 -0.0596 -0.2484
 1534WN      WN11638   8.399   9.230  10.231  0.1233 -0.0852  0.0691
 1535WN      WN11639   3.501   7.773   2.811  0.1614  0.1916 -0.0054
 1536WN      WN11640  12.538   0.733   0.393  0.2980  0.1445  0.0897
 1537WN      WN11641  13.282   2.138   8.671  0.3484  0.0007  0.1356
 1538WN      WN11642   7.358  15.843   9.375 -0.1182 -0.1423 -0.1489
 1539WN      WN11643  15.298   9.117   8.979  0.3237 -0.0916 -0.0860
 1540WN      WN11644  12.376   4.964   1.781 -0.0206  0.2290 -0.0577
 1541WN      WN11645   3.509   2.721   1.016  0.2194 -0.1032 -0.2773
 1542WN      WN11646   0.878  11.013  10.001 -0.0789 -0.2848 -0.1289
 1543WN      WN11647   3.730  12.864  10.704  0.1145  0.2092  0.1847
 1544WN      WN11648  14.808  14.843  10.082 -0.0224  0.0301  0.0052
 1545WN      WN11649   2.537  11.901   9.536  0.0398  0.0177 -0.3674
 1546WN      WN11650   0.300  10.220   1.141  0.0681 -0.2008  0.0625
 1547WN      WN11651   9.429   9.418  12.973  0.2278 -0.3907 -0.0683
 1548WN      WN11652   3.740   3.233  11.919  0.1418 -0.2335  0.2523
 1549WN      WN11653   7.873  14.523   9.846 -0.1803  0.1538 -0.1286
 1550WN      WN11654   1.839   4.986   0.113  0.0882 -0.2667  0.1174
 1551WN      WN11655   7.936   4.185   1.771  0.2641 -0.0815  0.0771
 1552WN      WN11656  10.580   6.163   8.584 -0.0624  0.0202  0.1048
 1553WN      WN11657   1.531  12.036  10.305  0.0051  0.0296  0.1503
 1554WN      WN11658   7.770   6.767  11.445 -0.0106  0.3613 -0.0175
 1555WN      WN11659   5.179   3.910   1.800 -0.1063 -0.1564 -0.0392
 1556WN      WN11660   6.091   4.652   9.469  0.1180 -0.0834  0.0614
 1557WN      WN11661   1.033   8.095   9.580 -0.2003  0.3163  0.2081
 1558WN      WN11662   5.041  12.496   2.914 -0.0956 -0.2304  0.1348
 1559WN      WN11663   3.485   3.343   3.915  0.2744  0.0573 -0.1134
 1560WN      WN11664   0.250  13.284   2.076 -0.1291 -0.0648 -0.1316
 1561WN      WN11665   4.115   4.338   9.846  0.2255 -0.1359  0.2177
 1562WN      WN11666   6.720   8.350   9.114  0.0296  0.1301 -0.3471
 1563WN      WN11667  14.189  12.194  11.927  0.0511  0.1932 -0.0111
 1564WN      WN11668   5.427   1.671   0.626  0.2933  0.0910  0.1535
 1565WN      WN11669   8.386  12.996   4.694  0.0368  0.0815 -0.4173
 1566WN      WN11670  11.670   2.466  13.243 -0.4900  0.1740  0.4369
 1567WN      WN11671  14.788   8.440   2.815 -0.2197  0.2867 -0.2452
 1568WN      WN11672  11.988   8.210   1.132 -0.4198 -0.2028  0.1949
 1569WN      WN11673   6.106   5.104   9.215 -0.2589  0.0915  0.1136
 1570WN      WN11674  11.064  10.267   3.977 -0.1844  0.1505  0.2111
 1571WN      WN11675   6.290   1.535  12.025 -0.2271  0.0079  0.1995
 1572WN      WN11676   8.062   0.919  10.115 -0.0379 -0.1390 -0.4244
 1573WN      WN11677  15.743   7.677   2.787  0.1184  0.2792  0.0333
 1574WN      WN11678   4.636  12.106   2.132  0.0572  0.0887 -0.2284
 1575WN      WN11679   4.580   5.245  11.842  0.1531 -0.2203 -0.1093
 1576WN      WN11680   7.649  11.785  13.325 -0.0336  0.1077  0.0998
 1577WN      WN11681  15.051  14.128   4.670  0.3552 -0.0492  0.0402
 1578WN      WN11682  15.092   8.647   0.289 -0.2494 -0.2328  0.0488
 1579WN      WN11683   4.369   0.998   0.481  0.1371 -0.0314  0.2324
 1580WN      WN11684  10.509   7.558  10.881  0.3519 -0.1329 -0.1981
 1581WN      WN11685  10.209   3.158  11.837  0.1533 -0.0517  0.2342
 1582WN      WN11686  14.558  15.690   8.877 -0.0386 -0.0455 -0.5143
 1583WN      WN11687   7.902   5.686   2.979 -0.1711 -0.1642  0.1097
 1584WN      WN11688  10.157   7.883   0.971  0.1487  0.2667  0.0123
 1585WN      WN11689  14.554  12.416   4.042 -0.3127 -0.0721  0.0061
 1586WN      WN11690   3.293  13.924   3.010  0.2785 -0.3398 -0.1424
 1587WN      WN11691   0.254  10.002  12.890  0.0824 -0.1979  0.3535
 1588WN      WN11692   2.872   7.335   0.483  0.0371  0.0596 -0.1044
 1589WN      WN11693   4.092   0.345   2.722 -0.2712  0.2021 -0.1306
 1590WN      WN11694   0.304  10.990  12.299  0.0424 -0.0353 -0.2804
 1591WN      WN11695   2.013  12.925  12.566  0.1265  0.0760  0.0217
 1592WN      WN11696   1.280   8.851   1.456 -0.1756  0.0245 -0.2065
 1593WN      WN11697  14.707  15.017  12.419  0.0107 -0.1605  0.3275
 1594WN      WN11698   0.346   6.956   9.858 -0.0736 -0.0983  0.1611
 1595WN      WN11699  14.816  14.274  10.829 -0.2624 -0.1826  0.0719
 1596WN      WN11700   2.078   4.954  13.152 -0.1486  0.2031  0.0615
 1597WN      WN11701   1.050   6.079   0.051 -0.1573 -0.1765 -0.1518
 1598WN      WN11702   5.343   1.887   1.146 -0.0883 -0.0763  0.3627
 1599WN      WN11703   4.663   4.365  13.316  0.0893 -0.2755  0.0183
 1600WN      WN11704   8.801  13.309   1.982 -0.1690  0.2210  0.1451
 1601WN      WN11705  13.438  12.469   0.724 -0.1275 -0.0094  0.2313
 1602WN      WN11706   4.357   8.493   3.941  0.1061  0.1291  0.0895
 1603WN      WN11707   4.797  14.331  11.903  0.0288  0.1599  0.0127
 1604WN      WN11708  11.205   6.543   1.915  0.2036 -0.0171  0.1630
 1605WN      WN11709   0.668   6.391   1.317  0.0633  0.3156 -0.0238
 1606WN      WN11710  14.267   7.652   2.219  0.3353 -0.2582  0.0870
 1607WN      WN11711  12.441   4.143   8.415 -0.3592  0.1944 -0.1534
 1608WN      WN11712   1.685   4.323   2.291 -0.1317 -0.0747  0.4136
 1609WN      WN11713   1.407   3.956  13.392  0.2832  0.1882  0.0428
 1610WN      WN11714   1.722   5.880   3.568  0.1012 -0.2917 -0.3848
 1611WN      WN11715   9.899  14.305  12.800  0.2946 -0.1031 -0.0093
 1612WN      WN11716  15.337  14.303  13.232  0.1651 -0.1836  0.1668
 1613WN      WN11717  10.075   4.837   1.915 -0.2649 -0.0459  0.1037
 1614WN      WN11718   1.989  10.962  13.531 -0.0088  0.0932  0.0115
 1615WN      WN11719   4.055   6.200  12.849 -0.0639  0.0913  0.0162
 1616WN      WN11720   2.934   8.201   9.867 -0.0496  0.0089  0.1637
 1617WN      WN11721  10.834  15.077   4.395  0.0260  0.0854 -0.0507
 1618WN      WN11722  14.322   8.551   3.015  0.0331  0.1144  0.1615
 1619WN      WN11723  10.386   5.244  12.850 -0.4474 -0.2531 -0.0390
 1620WN      WN11724   5.843   8.712  12.952 -0.0520 -0.0850  0.0604
 1621WN      WN11725   5.379   2.925  11.084 -0.3885 -0.0363  0.1198
 1622WN      WN11726   7.621   7.307  10.138 -0.0746  0.3140  0.1631
 1623WN      WN11727   3.209  13.500   0.168  0.1185 -0.1447 -0.0349
 1624WN      WN11728   1.349  14.617   9.652  0.1426 -0.0604 -0.0146
 1625WN      WN11729   9.547  12.461  11.844 -0.0247 -0.1076 -0.0202
 1626WN      WN11730  11.093   1.330   1.190 -0.3581  0.0842  0.0050
 1627WN      WN11731  12.445   6.094   7.488 -0.1155 -0.0331  0.1080
 1628WN      WN11732  13.841   9.725   1.233 -0.0754 -0.2258 -0.1652
 1629WN      WN11733   0.626   9.738   4.230 -0.2010  0.0659 -0.0331
 1630WN      WN11734   7.381   1.523  13.271  0.2006  0.2116 -0.2654
 1631WN      WN11735   2.710   6.895   3.025 -0.0954  0.2088 -0.3541
 1632WN      WN11736   8.757  12.152   2.873 -0.1586  0.1312  0.1183
 1633WN      WN11737  14.345   3.794   9.749  0.2208  0.1309 -0.0960
 1634WN      WN11738   2.073  11.128   2.779 -0.3236  0.1127  0.0363
 1635WN      WN11739  15.712  11.378   1.984 -0.0590  0.0012 -0.4962
 1636WN      WN11740   6.643   7.052   1.018  0.2934 -0.1216  0.1124
 1637WN      WN11741   2.002  15.713   3.876 -0.0339 -0.0296  0.4986
 1638WN      WN11742   9.491   6.441  13.447 -0.0419 -0.0121 -0.2055
 1639WN      WN11743  12.390   5.050  10.425 -0.1457 -0.3486 -0.1832
 1640WN      WN11744   1.899   7.551   9.113 -0.6249  0.1334 -0.0918
 1641WN      WN11745  11.614   5.196  11.075  0.1446  0.1780 -0.1662
 1642WN      WN11746  10.145  14.065  13.270 -0.0303 -0.3449  0.1406
 1643WN      WN11747  11.249  13.362  12.266  0.1044  0.0705  0.1131
 1644WN      WN11748   9.837  14.837   0.172 -0.3483  0.0620  0.1354
 1645WN      WN11749   7.411  15.232   1.616  0.6625 -0.4491 -0.0217
 1646WN      WN11750   9.902   3.167  13.475 -0.0061 -0.0190 -0.0298
 1647WN      WN11751   8.042   1.141   9.385  0.1486  0.1469  0.3251
 1648WN      WN11752  11.659  10.890   9.533 -0.2362  0.1565  0.3565
 1649WN      WN11753  14.781  14.466  11.266 -0.4105 -0.0548  0.3127
 1650WN      WN11754   2.903   4.257  10.642 -0.0100 -0.0608  0.2855
 1651WN      WN11755   5.585   4.293   3.969 -0.0572  0.1335 -0.3032
 1652WN      WN11756   8.172   2.702   1.803  0.2343  0.1552  0.3409
 1653WN      WN11757  10.318  12.883   1.220  0.0931 -0.2814 -0.0302
 1654WN      WN11758   7.938  11.930   2.197 -0.0993 -0.0987 -0.0419
 1655WN      WN11759   0.421   6.046   8.706 -0.0163 -0.0101 -0.0512
 1656WN      WN11760   0.527   2.962  10.073 -0.1434 -0.0203 -0.1179
 1657WN      WN11761   8.187   3.710   3.092  0.0143  0.2386  0.0526
 1658WN      WN11762   1.979   1.630   4.538  0.3393  0.0973  0.1135
 1659WN      WN11763   5.553   9.545  11.572  0.2036 -0.1266 -0.0441
 1660WN      WN11764   5.624   5.807   3.821 -0.0204 -0.1531  0.0674
 1661WN      WN11765   2.191   6.010   3.524 -0.1149 -0.1263  0.1381
 1662WN      WN11766  13.192   6.515  10.558  0.0521  0.1329  0.0121
 1663WN      WN11767  15.453   6.831   8.550  0.2263  0.0151  0.0475
 1664WN      WN11768   7.720   2.581  11.663  0.0648  0.0861  0.1250
 1665WN      WN11769   0.591   2.567   1.878 -0.0172  0.2333  0.0232
 1666WN      WN11770   0.470  10.384   1.958 -0.1212 -0.1679  0.3019
 1667WN      WN11771   6.159   2.742  10.835  0.0701  0.2811  0.1198
 1668WN      WN11772   0.527  13.782   0.799 -0.1018 -0.2072 -0.0714
 1669WN      WN11773  12.910  15.235  12.680 -0.2029  0.3115 -0.0236
 1670WN      WN11774   7.639   5.964  11.772 -0.1655 -0.0421 -0.1971
 1671WN      WN11775   9.042  10.016   3.786 -0.0298 -0.0919 -0.0783
 1672WN      WN11776  15.088  13.807   4.307 -0.0541 -0.0532  0.0790
 1673WN      WN11777   1.908   4.620   2.792  0.2599  0.3080  0.0391
 1674WN      WN11778   5.669   4.121   2.748  0.2789 -0.3486 -0.3037
 1675WN      WN11779   3.271   1.309   3.970 -0.0684 -0.0434 -0.1811
 1676WN      WN11780   9.023  15.452   9.714  0.1916  0.1301  0.0670
 1677WN      WN11781   9.102   9.148   3.767 -0.0420  0.0219  0.2684
 1678WN      WN11782   1.257   1.197   0.158 -0.1360 -0.0294  0.1527
 1679WN      WN11783   2.556  13.196   8.900 -0.2602 -0.1375  0.1809
 1680WN      WN11784  10.681   3.253  11.926  0.0259  0.0362 -0.0453
 1681WN      WN11785  13.532   1.543   9.728  0.1123 -0.3117  0.2159
 1682WN      WN11786   9.175   4.539   1.471 -0.1592  0.0862 -0.0866
 1683WN      WN11787   7.457  12.102  12.633 -0.4195 -0.2688  0.0329
 1684WN      WN11788   6.454   9.577   9.473 -0.0787  0.2348 -0.2884
 1685WN      WN11789   8.799  10.488   4.467  0.1719 -0.0950  0.0814
 1686WN      WN11790  13.124   8.885   1.288 -0.0418 -0.4524 -0.1378
 1687WN      WN11791  11.725  11.395   1.786  0.0010 -0.2957 -0.1227
 1688WN      WN11792  12.744  10.644   0.172  0.4141 -0.2926 -0.0107
 1689WN      WN11793   6.756  12.195  11.111  0.2749  0.0692 -0.0507
 1690WN      WN11794   7.726   9.855   3.707  0.1072 -0.4168  0.1512
 1691WN      WN11795   9.163   1.775  13.146 -0.1328  0.1628  0.0119
 1692WN      WN11796   5.409  15.085  12.278 -0.3881 -0.0036  0.0679
 1693WN      WN11797   3.927   6.406   9.346  0.1933 -0.2714 -0.3218
 1694WN      WN11798   8.206   3.901  11.233  0.4207  0.0561  0.0487
 1695WN      WN11799   7.055   4.999  10.953 -0.1624  0.0430 -0.0064
 1696WN      WN11800   2.975  11.994   2.522 -0.2729 -0.0119 -0.0037
 1697WN      WN11801  15.516  12.356   9.303  0.0384  0.4216  0.1303
 1698WN      WN11802   2.323  14.707   1.306  0.0739  0.0041 -0.0659
 1699WN      WN11803  12.236   3.607  10.940 -0.1216 -0.0224 -0.1543
 1700WN      WN11804   8.945  14.664  11.409  0.3583  0.1603 -0.3889
 1701WN      WN11805  11.061  14.797   0.321 -0.0877  0.0334  0.0680
 1702WN      WN11806   1.740   9.909   0.309 -0.0125  0.1840 -0.0760
 1703WN      WN11807   0.897   7.312  10.019 -0.2389 -0.0221 -0.3416
 1704WN      WN11808   6.865  12.478   4.573 -0.0865  0.0290  0.2258
 1705WN      WN11809   8.930   0.494   4.512  0.2092 -0.0288  0.1220
 1706WN      WN11810   5.263  12.385  12.191 -0.0581 -0.0717 -0.0299
 1707WN      WN11811   5.916   8.260   2.570 -0.1894  0.2348 -0.3160
 1708WN      WN11812  10.686  15.473  13.406 -0.0060 -0.2461  0.1526
 1709WN      WN11813  10.364   4.441   1.696 -0.0456 -0.0246  0.1646
 1710WN      WN11814  12.728   8.821   2.125 -0.1410 -0.2723  0.1384
 1711WN      WN11815  10.068  13.054  13.085 -0.0377  0.2709 -0.0367
 1712WN      WN11816  11.856  11.775   3.688 -0.1768 -0.1373  0.2315
 1713WN      WN11817   2.778  10.710  12.231 -0.0573  0.0522  0.0747
 1714WN      WN11818   0.966  12.793   9.843 -0.2566  0.1879  0.0532
 1715WN      WN11819   8.811   2.796   3.096 -0.1883  0.0127  0.0714
 1716WN      WN11820  14.106  13.444   3.793  0.0402  0.1964  0.2490
 1717WN      WN11821   0.773   5.056  12.512  0.3038  0.1261 -0.0141
 1718WN      WN11822  12.836  10.017   2.296 -0.2113  0.0402  0.1505
 1719WN      WN11823   1.090   3.742   3.768 -0.0976  0.0115 -0.0379
 1720WN      WN11824   6.667   0.730  13.445  0.0299  0.1413  0.0603
 1721WN      WN11825  12.708  12.578  11.590  0.0253  0.0842 -0.2261
 1722WN      WN11826   9.351   4.264   9.971  0.5214  0.0459  0.1629
 1723WN      WN11827   6.910  11.701  13.312 -0.0714 -0.1375 -0.4566
 1724WN      WN11828  13.221   4.654   7.965 -0.1857  0.3627 -0.1375
 1725WN      WN11829  12.507   8.978   0.011  0.2434 -0.1582 -0.3368
 1726WN      WN11830  10.961   4.545   1.483 -0.1323 -0.1742  0.0155
 1727WN      WN11831  13.402  11.277  12.208  0.2269 -0.0753 -0.0920
 1728WN      WN11832   9.283   4.374   9.497 -0.1143  0.0594  0.4320
 1729WN      WN11833   6.241  15.829  11.438 -0.0343  0.2372 -0.1197
 1730WN      WN11834   1.066   1.588   0.405  0.1038  0.0750 -0.0529
 1731WN      WN11835   2.385   5.453  12.172  0.1591 -0.2909  0.2623
 1732WN      WN11836   8.652   2.027  10.423  0.2173 -0.0610  0.2988
 1733WN      WN11837   0.521   9.991   1.660 -0.0233 -0.2620 -0.3615
 1734WN      WN11838   4.755  11.305   3.791 -0.2674 -0.3182  0.1114
 1735WN      WN11839   7.655   6.663   1.978  0.1567  0.3262 -0.2363
 1736WN      WN11840  12.497   7.732  13.513  0.3084  0.0860 -0.0220
 1737WN      WN11841   7.193   9.771   9.193 -0.2835 -0.0157  0.0277
 1738WN      WN11842   4.551  14.079  10.231  0.3021  0.1238 -0.2026
 1739WN      WN11843   1.103  12.998  10.434  0.4357 -0.2132 -0.2495
 1740WN      WN11844  13.845  15.695  13.452  0.0620  0.2378  0.0890
 1741WN      WN11845  14.009  13.145   9.707  0.2710  0.2327 -0.2130
 1742WN      WN11846   7.004   0.901   3.626  0.0608 -0.0939 -0.1741
 1743WN      WN11847   7.329   3.192   0.275 -0.1745  0.0532  0.2268
 1744WN      WN11848  11.962   9.887  11.978 -0.0311  0.1172 -0.0360
 1745WN      WN11849   7.384  15.446   9.749 -0.1798  0.1125  0.0662
 1746WN      WN11850   7.991   9.876  11.431  0.0564 -0.0445  0.0293
 1747WN      WN11851  13.635  13.201   9.270  0.3305 -0.0720  0.0340
 1748WN      WN11852   3.685   0.200   0.145  0.3465  0.2387 -0.1034
 1749WN      WN11853   0.845  12.797  12.375  0.0386 -0.2211  0.1211
 1750WN      WN11854   1.124   3.974   2.664 -0.0169 -0.2019 -0.1316
 1751WN      WN11855   0.413   8.575   9.876 -0.2108 -0.0196  0.0690
 1752WN      WN11856   2.272   2.673  13.428 -0.0886  0.2892 -0.1587
 1753WN      WN11857   6.946   4.229   1.009 -0.2084 -0.0734  0.0730
 1754WN      WN11858   3.038   7.141   9.585  0.0829 -0.0333  0.0469
 1755WN      WN11859  15.840   3.442   0.936 -0.4120 -0.1250 -0.1052
 1756WN      WN11860   0.794   4.755   8.525 -0.0700  0.1495 -0.1293
 1757WN      WN11861   4.067  13.436   1.743 -0.0569  0.0663  0.2528
 1758WN      WN11862   2.996   9.463  12.632  0.1242 -0.0055 -0.1502
 1759WN      WN11863  12.924   8.625   1.715 -0.1036  0.0866  0.2076
 1760WN      WN11864  13.330   9.359   4.163  0.0732 -0.0664 -0.0103
 1761WN      WN11865   1.620  14.950  10.137  0.1172 -0.0802  0.0247
 1762WN      WN11866   4.337  10.998  10.659  0.2304  0.0846 -0.1397
 1763WN      WN11867   7.981  14.955   2.544 -0.0520 -0.1230  0.2649
 1764WN      WN11868   5.505   7.096   0.671 -0.1245  0.1990 -0.1247
 1765WN      WN11869   1.259   6.978  10.214  0.2095  0.1300 -0.2063
 1766WN      WN11870   0.978  11.864  12.420  0.3428 -0.0118  0.1438
 1767WN      WN11871   5.361  12.539   1.446  0.2396  0.2292 -0.1267
 1768WN      WN11872   3.768   9.254   9.471 -0.0915 -0.0211 -0.1940
 1769WN      WN11873   1.862  12.576  10.654  0.1269  0.2058  0.2437
 1770WN      WN11874   0.463   9.743   2.801 -0.1153  0.1057 -0.2149
 1771WN      WN11875  15.625  14.839   4.252 -0.2932 -0.0106 -0.1678
 1772WN      WN11876   5.710  12.915  10.469  0.1184  0.0242  0.1053
 1773WN      WN11877  10.169  14.706   3.693  0.0773 -0.0497 -0.0156
 1774WN      WN11878  15.188   5.908  13.468 -0.2453  0.1261  0.0125
 1775WN      WN11879   8.642   7.777  12.064  0.0024 -0.2164  0.3857
 1776WN      WN11880   9.209  13.278   2.313  0.0041  0.3663  0.2351
 1777WN      WN11881  14.499  14.775  12.828  0.3625 -0.2838 -0.0230
 1778WN      WN11882   8.519   7.509   3.303  0.0208 -0.3100  0.1261
 1779WN      WN11883   8.131  12.728   0.435 -0.0323  0.1977 -0.2029
 1780WN      WN11884   6.688   4.294   0.588 -0.1181  0.2710  0.0926
 1781WN      WN11885  14.234   0.696  13.257 -0.1243  0.1263  0.1175
 1782WN      WN11886   3.165   7.721  12.117 -0.1475  0.2274  0.3753
 1783WN      WN11887  12.511   9.848   0.316  0.0078 -0.3619  0.1250
 1784WN      WN11888  15.363  10.253   9.185 -0.0122 -0.0559  0.6267
 1785WN      WN11889   4.375   4.031  11.691 -0.4724 -0.2762 -0.0335
 1786WN      WN11890  12.527   6.167   3.286 -0.4695  0.0025  0.4088
 1787WN      WN11891   3.942   6.545   1.826  0.0308 -0.1244 -0.1437
 1788WN      WN11892   3.433   5.967   8.974  0.1062 -0.0976  0.0453
 1789WN      WN11893  13.059   8.613   3.021 -0.0528  0.2002  0.1183
 1790WN      WN11894  14.859   0.950  11.134 -0.0833 -0.1867  0.1349
 1791WN      WN11895   2.679  14.370  12.881  0.0245  0.1611 -0.0538
 1792WN      WN11896  11.008   0.774   1.370  0.0921 -0.2611  0.0503
 1793WN      WN11897  13.795   7.222   0.729 -0.0119  0.0646 -0.2366
 1794WN      WN11898   9.681  14.393   0.827 -0.1030 -0.0789  0.0146
 1795WN      WN11899   9.045   5.769  10.770  0.0498 -0.4127 -0.1173
 1796WN      WN11900   9.302   7.868   3.728 -0.1407  0.2892 -0.0774
 1797WN      WN11901   4.169  12.981   3.783 -0.0217 -0.4780  0.0125
 1798WN      WN11902   9.397   1.874   1.894 -0.2885 -0.2209  0.2740
 1799WN      WN11903   6.176   3.667  11.156 -0.0932  0.1499  0.0233
 1800WN      WN11904   9.451  10.359   3.119  0.1394  0.0460  0.0948
 1801WN      WN11905   3.840   5.341  12.089  0.0651 -0.0785  0.1423
 1802WN      WN11906   8.884   1.868  12.575  0.1389  0.2562 -0.2266
 1803WN      WN11907   9.711   0.897   1.604 -0.5357  0.1380  0.1107
 1804WN      WN11908   6.185  10.458   8.926 -0.3797  0.1697  0.1674
 1805WN      WN11909   9.803  15.210   3.357  0.0548 -0.0943 -0.2805
 1806WN      WN11910   0.483   0.865   1.793  0.0758  0.4459 -0.5544
 1807WN      WN11911  12.833   2.465  13.109 -0.1013  0.0301  0.0295
 1808WN      WN11912   0.416   8.815  12.485 -0.0631 -0.1528 -0.1604
 1809WN      WN11913  15.134   2.040   0.590 -0.1517 -0.0331 -0.3341
 1810WN      WN11914   4.216  14.222  11.998 -0.3376  0.2315 -0.2078
 1811WN      WN11915  13.178   9.028  12.429  0.1862  0.2425 -0.1583
 1812WN      WN11916   6.240   6.652  11.692  0.0195  0.1534 -0.2404
 1813WN      WN11917   1.109   2.673   0.604 -0.0087 -0.0311  0.0881
 1814WN      WN11918   1.119   4.827  12.281  0.1829  0.0474  0.1455
 1815WN      WN11919  15.516  12.898   1.969 -0.1588 -0.4270 -0.2817
 1816WN      WN11920   7.264   1.113   0.055 -0.1912  0.0586  0.1367
 1817WN      WN11921   8.382  12.277   1.301 -0.1103 -0.2335  0.1395
 1818WN      WN11922   9.355   1.203   1.058  0.1260 -0.0253 -0.0163
 1819WN      WN11923   5.497   4.540   3.495 -0.4184  0.0556  0.1428
 1820WN      WN11924   9.721  14.953   4.966 -0.2804 -0.0372 -0.1065
 1821WN      WN11925  13.594   4.714   9.304  0.1187 -0.0793 -0.0371
 1822WN      WN11926  15.643   5.815  12.648 -0.0506  0.1042  0.0252
 1823WN      WN11927  14.859   8.889  11.856 -0.3313  0.0153  0.3335
 1824WN      WN11928   7.566   1.505   4.174  0.0689 -0.1618  0.0639
 1825WN      WN11929   9.847   7.322  12.235 -0.1008 -0.1400 -0.0878
 1826WN      WN11930   9.971  11.771   3.377 -0.2118 -0.0293  0.0043
 1827WN      WN11931  12.429   4.950  12.675 -0.1529 -0.2621 -0.0899
 1828WN      WN11932  10.912  11.793   4.718 -0.1895 -0.0750  0.0439
 1829WN      WN11933  15.504   1.994   2.457  0.1351  0.1304  0.3012
 1830WN      WN11934  11.820   7.914   2.885 -0.1015  0.3721 -0.0656
 1831WN      WN11935   9.669  11.341  11.258  0.7421  0.2749  0.1309
 1832WN      WN11936  15.335   5.097  10.429  0.0688  0.1157  0.0552
 1833WN      WN11937  11.331  11.623   4.409  0.3639  0.2384  0.0882
 1834WN      WN11938   4.144  10.141  12.671 -0.1324 -0.2330 -0.1074
 1835WN      WN11939   9.606   5.599  11.816  0.0161  0.0443  0.1068
 1836WN      WN11940  14.885   0.147   3.579  0.2544 -0.0124  0.1683
 1837WN      WN11941   4.212   7.612   1.916 -0.1088  0.0193  0.0165
 1838WN      WN11942   6.076   6.377   1.161 -0.0508  0.2445 -0.1702
 1839WN      WN11943   3.848  11.046   1.970 -0.1408 -0.3306  0.1743
 1840WN      WN11944  15.844  14.482   3.985 -0.1559  0.0206 -0.1378
 1841WN      WN11945   8.319  14.000   0.678  0.1106 -0.0518 -0.1137
 1842WN      WN11946   2.143   6.711   1.656  0.0284 -0.0650 -0.1045
 1843WN      WN11947   1.667  11.955  13.062 -0.0843 -0.1923 -0.2084
 1844WN      WN11948   0.447  10.449  11.058 -0.2974 -0.0224  0.3046
 1845WN      WN11949   3.278  11.826   1.631 -0.2780  0.1449 -0.0784
 1846WN      WN11950   9.734   0.509   1.242  0.0254  0.1975  0.1704
 1847WN      WN11951  15.397   8.892  12.847  0.1549  0.2888 -0.2343
 1848WN      WN11952  12.321   7.142   1.835  0.2178  0.0448 -0.1173
 1849WN      WN11953   0.768  10.507   3.762 -0.0981  0.0610  0.3006
 1850WN      WN11954   2.427  13.126  13.446  0.1655  0.0076 -0.0138
 1851WN      WN11955   4.862   5.495  11.499  0.0584  0.1664  0.2219
 1852WN      WN11956   0.371   2.644   9.613 -0.1225 -0.1337  0.0020
 1853WN      WN11957  14.490   9.160   9.953 -0.0165  0.2681 -0.1198
 1854WN      WN11958  14.974  13.284   2.700  0.0226 -0.2055 -0.0839
 1855WN      WN11959   4.436  10.533   3.278 -0.2230 -0.1704  0.0734
 1856WN      WN11960   4.468  15.442   9.426  0.2597 -0.0926 -0.0668
 1857WN      WN11961   6.919  12.794   9.701  0.1265  0.1885  0.0903
 1858WN      WN11962   3.859   6.962   0.934 -0.0566 -0.2622  0.1115
 1859WN      WN11963  11.988   5.883   2.547 -0.1057  0.1647 -0.2146
 1860WN      WN11964   8.339   5.137  11.131 -0.2659 -0.1469  0.0239
 1861WN      WN11965  13.672   2.559   9.868 -0.1471  0.1425 -0.1711
 1862WN      WN11966   5.076   6.272  11.779  0.1977 -0.2091 -0.2979
 1863WN      WN11967  15.520   0.911   1.975 -0.0322  0.2269 -0.0122
 1864WN      WN11968  11.109  13.663  12.865 -0.2884 -0.0411  0.0308
 1865WN      WN11969   7.370  12.459   3.441 -0.1021 -0.0512 -0.0430
 1866WN      WN11970   1.890  11.022   9.136  0.0619  0.2606 -0.0745
 1867WN      WN11971   8.482  12.436   1.792  0.3097 -0.2016 -0.0804
 1868WN      WN11972   0.495   7.006  11.865  0.2123 -0.1744 -0.2273
 1869WN      WN11973  13.778  15.587  11.572 -0.1491  0.0762 -0.0254
 1870WN      WN11974  15.111  14.123   0.140  0.2116 -0.0645 -0.0767
 1871WN      WN11975   7.736  13.365  12.343 -0.2537 -0.2980 -0.1086
 1872WN      WN11976  10.387   0.659   0.572  0.2689 -0.1301  0.2467
 1873WN      WN11977   7.459  15.005   4.266  0.0927 -0.1719  0.0232
 1874WN      WN11978   9.342   5.282   9.743 -0.2026  0.1107  0.2241
 1875WN      WN11979   6.063   4.700  12.724 -0.2097  0.2923  0.2738
 1876WN      WN11980   0.008  10.436   1.794  0.3604 -0.0277  0.0615
 1877WN      WN11981   5.360  14.837   1.918  0.0385  0.2856 -0.0088
 1878WN      WN11982  13.955   5.964   0.343  0.1523  0.1256  0.1121
 1879WN      WN11983   0.304   3.000  13.062 -0.2581  0.0487  0.0740
 1880WN      WN11984   7.954   0.479  13.035 -0.3894 -0.3718 -0.1705
 1881WN      WN11985   1.558   7.164   4.457 -0.2090  0.1498  0.0725
 1882WN      WN11986  12.463   6.341  11.835 -0.3196 -0.1214  0.0420
 1883WN      WN11987   1.792   5.198  12.168  0.0487 -0.4692  0.2061
 1884WN      WN11988   4.024   8.444  13.323  0.1053 -0.3887  0.1762
 1885WN      WN11989   8.298   1.325   0.820 -0.0200  0.0879 -0.1984
 1886WN      WN11990   9.015  11.403   3.062 -0.2041  0.4483  0.0166
 1887WN      WN11991  11.265  10.643   1.175  0.1952 -0.0691 -0.0218
 1888WN      WN11992   4.257  14.936  12.904 -0.0191 -0.0596  0.1159
 1889WN      WN11993  11.637   2.745  11.146 -0.1120 -0.0329  0.0767
 1890WN      WN11994  11.861  14.069   4.462  0.1365 -0.0322 -0.0014
 1891WN      WN11995  14.242  13.839  11.641 -0.2637 -0.0099 -0.0461
 1892WN      WN11996   7.185   5.729   3.687  0.1387  0.2167  0.1298
 1893WN      WN11997   6.998   7.894   3.124  0.0509 -0.1954  0.2673
 1894WN      WN11998  14.946   6.756  11.245  0.0156 -0.0465  0.3205
 1895WN      WN11999  11.299   5.006   7.851  0.3932 -0.4349 -0.1979
 1896WN      WN12000  15.111   7.376   1.073  0.2963  0.3987 -0.0643
 1897WN      WN12001  12.371   4.761   8.436 -0.1354  0.3629 -0.0620
 1898WN      WN12002   7.747   9.517   9.105 -0.1765  0.0301 -0.1390
 1899WN      WN12003  10.987   5.994   7.585 -0.1624 -0.0145  0.7044
 1900WN      WN12004  11.074   4.206   9.506 -0.0686  0.1384  0.2520
 1901WN      WN12005   1.824   9.458   1.191  0.2160  0.4114 -0.0024
 1902WN      WN12006   6.728  12.215   0.281  0.5712 -0.1170  0.1442
 1903WN      WN12007   0.743   9.350  12.906 -0.1095  0.1443 -0.1067
 1904WN      WN12008  10.891  13.186   2.471  0.0132 -0.1616 -0.1802
 1905WN      WN12009   5.787   4.934   2.731  0.1804 -0.1396  0.0066
 1906WN      WN12010   9.567   0.015   4.990 -0.0188 -0.0960  0.1794
 1907WN      WN12011   6.216  13.117   2.147  0.1866  0.3008  0.0628
 1908WN      WN12012   3.188   4.012  12.275  0.0926  0.3817 -0.1292
 1909WN      WN12013   1.615  14.435   8.858  0.1104  0.0364 -0.1933
 1910WN      WN12014   7.740   4.856   9.766 -0.0912  0.0914 -0.0345
 1911WN      WN12015   4.059   7.075   4.738  0.1428  0.0940 -0.2208
 1912WN      WN12016   3.193   0.516  12.783 -0.3825 -0.3067 -0.0578
 1913WN      WN12017  12.192   0.196   1.629 -0.0059  0.3333 -0.1147
 1914WN      WN12018  12.772  12.429   0.575 -0.2407  0.0034 -0.2897
 1915WN      WN12019   2.222  10.513   4.338 -0.0570  0.0274  0.2599
 1916WN      WN12020   7.818  14.455   8.738 -0.0819 -0.4671  0.1223
 1917WN      WN12021  14.752  12.273   2.582  0.0952  0.0323  0.1011
 1918WN      WN12022   4.857   8.042   0.058 -0.0326  0.1293  0.0474
 1919WN      WN12023   0.897   5.332   8.807  0.1073 -0.1917 -0.1845
 1920WN      WN12024  12.467   6.252   0.849 -0.0676  0.2938  0.2744
 1921WN      WN12025   9.362   6.847  10.640 -0.0184  0.2644 -0.0351
 1922WN      WN12026   8.098   5.421   0.441  0.1340  0.3423 -0.0840
 1923WN      WN12027   9.288   1.525   3.674 -0.0034  0.2695  0.1478
 1924WN      WN12028   6.166  10.449   4.304  0.3333  0.0894  0.1927
 1925WN      WN12029   9.128   6.629   9.025  0.0206 -0.1222  0.3398
 1926WN      WN12030   2.323   6.562  11.362 -0.1207  0.3207 -0.0074
 1927WN      WN12031   7.929   4.935  12.405  0.4324  0.0725  0.1942
 1928WN      WN12032   7.590   4.251   3.777 -0.1097 -0.0883 -0.5228
 1929WN      WN12033  10.225  11.145  12.741 -0.0759 -0.1350  0.0888
 1930WN      WN12034  10.758   9.426  12.650 -0.1456 -0.1450 -0.0544
 1931WN      WN12035  11.551   4.160  11.635 -0.0978 -0.1138 -0.0113
 1932WN      WN12036   6.376  10.290   0.642  0.1331  0.1346 -0.2381
 1933WN      WN12037  10.830   7.120   2.694  0.2446  0.1973  0.0944
 1934WN      WN12038  11.946   2.924   3.887  0.0876 -0.0322 -0.2823
 1935WN      WN12039   8.831  13.208   3.799  0.1044  0.0733  0.1773
 1936WN      WN12040   5.533   0.998  10.887  0.1024  0.0654 -0.1020
 1937WN      WN12041   1.048  12.984   9.352  0.0229  0.1168 -0.1110
 1938WN      WN12042  12.359  10.152   9.369  0.1786 -0.2766 -0.0234
 1939WN      WN12043   8.164   3.290   2.898  0.0064  0.1240 -0.0400
 1940WN      WN12044   4.431   3.525   1.174  0.0629 -0.0340 -0.1602
 1941WN      WN12045   4.263   9.122   9.000  0.3109  0.3914 -0.3993
 1942WN      WN12046   9.098  14.651   2.211 -0.2822 -0.4323 -0.3587
 1943WN      WN12047   4.558   2.387   2.131 -0.1503 -0.0918 -0.3839
 1944WN      WN12048   4.119   8.121  12.884 -0.1145  0.0506  0.0373
 1945WN      WN12049   4.484  10.853  11.708 -0.0573  0.2366  0.1011
 1946WN      WN12050   8.350  11.937   0.848 -0.1111 -0.0216  0.1151
 1947WN      WN12051  10.601   5.998   1.398  0.0142 -0.0887 -0.3633
 1948WN      WN12052  13.220   9.431   9.564  0.0067  0.0820 -0.3864
 1949WN      WN12053  10.713   2.613   1.204  0.0056 -0.1656  0.1038
 1950WN      WN12054  14.359   7.400   0.515  0.0705  0.1110  0.1493
 1951WN      WN12055  14.803   4.330   2.523 -0.1685 -0.0288  0.2315
 1952WN      WN12056   8.956  10.443   0.305  0.0386  0.0267  0.1311
 1953WN      WN12057   3.644   1.307   9.858 -0.0873 -0.0262  0.2865
 1954WN      WN12058   4.161  11.780  12.754  0.0416 -0.1935 -0.2810
 1955WN      WN12059   7.920   8.741   4.457  0.1879  0.0274 -0.1289
 1956WN      WN12060  13.177   7.848  12.070  0.0164 -0.3852 -0.2276
 1957WN      WN12061   9.473   8.637  13.307 -0.2853  0.0587  0.2724
 1958WN      WN12062  13.527   8.528   9.078  0.1021  0.1047 -0.0261
 1959WN      WN12063   4.348   9.384   9.566 -0.3406  0.0900  0.0820
 1960WN      WN12064  10.225   7.044  12.107 -0.0092 -0.0574 -0.1499
 1961WN      WN12065   3.088   4.658   9.081 -0.0954 -0.0367  0.2298
 1962WN      WN12066  12.624  11.526   4.288 -0.1510 -0.1436  0.0707
 1963WN      WN12067   1.863   0.655  10.912  0.0583  0.1167 -0.0078
 1964WN      WN12068   5.073  10.564   0.154  0.1367 -0.0900  0.2012
 1965WN      WN12069   7.683   5.798  13.033 -0.1547  0.0848 -0.2398
 1966WN      WN12070   7.581  10.571   3.881 -0.1952  0.1918 -0.1538
 1967WN      WN12071  14.254   4.763  12.726  0.2975  0.1934  0.2690
 1968WN      WN12072   2.984   7.147  10.720 -0.2013  0.0457  0.0641
 1969WN      WN12073   0.019   4.046  13.061 -0.2299  0.0593  0.4968
 1970WN      WN12074   5.024  10.246   1.151 -0.1110 -0.1113  0.0204
 1971WN      WN12075   6.342   1.382   1.236 -0.0657  0.3056 -0.1731
 1972WN      WN12076   6.956   2.970  10.412  0.4115  0.0076 -0.1346
 1973WN      WN12077   6.452   5.474   8.987  0.0461 -0.0172  0.0862
 1974WN      WN12078   1.808   5.500  11.357  0.0603 -0.0924  0.1806
 1975WN      WN12079  15.746   2.395  11.633 -0.2469  0.0214  0.2364
 1976WN      WN12080   7.751   3.010   3.029  0.0762  0.0164  0.1077
 1977WN      WN12081   3.223   3.254   2.678  0.0938 -0.2356  0.4684
 1978WN      WN12082   8.132   6.479   0.648 -0.1231 -0.2697  0.0588
 1979WN      WN12083  14.157   7.180   8.847 -0.1541 -0.1982 -0.0226
 1980WN      WN12084   4.952  10.227   9.679  0.1294 -0.2242  0.0731
 1981WN      WN12085  12.343  10.849  12.875 -0.1297 -0.2508  0.0471
 1982WN      WN12086  15.081   8.860   1.203  0.0064  0.1896  0.1207
 1983WN      WN12087  10.998   9.713   3.306  0.3516  0.1468 -0.1346
 1984WN      WN12088   6.900  13.845   2.355  0.1674  0.0676  0.2234
 1985WN      WN12089   7.532   7.712   1.347 -0.1389 -0.1495  0.0179
 1986WN      WN12090  10.965   8.945   2.714 -0.2922  0.0457 -0.1870
 1987WN      WN12091   5.522  14.384   2.434  0.0720  0.4145 -0.0164
 1988WN      WN12092   6.922  15.314  12.208 -0.0605  0.2803 -0.0401
 1989WN      WN12093  11.164   9.965   9.656 -0.0126  0.0898  0.1096
 1990WN      WN12094  12.912   6.875   9.034  0.0235 -0.0435  0.0609
 1991WN      WN12095   8.534   6.389   3.048  0.3006 -0.0957  0.3359
 1992WN      WN12096   5.180   5.795  10.567  0.1402 -0.0541 -0.0870
 1993WN      WN12097  13.101   0.820  12.584  0.1184  0.0253 -0.0146
 1994WN      WN12098  14.262   6.252  11.824  0.1312 -0.0739 -0.1317
 1995WN      WN12099  15.711   2.902  11.631 -0.0696 -0.3577  0.1485
 1996WN      WN12100   4.684  13.120  13.249  0.1484  0.2845 -0.1775
 1997WN      WN12101   1.761   1.053  10.193  0.4096 -0.2273 -0.0574
 1998WN      WN12102   7.615   2.113   4.955 -0.1862 -0.0762  0.1892
 1999WN      WN12103  13.053   0.940  13.067 -0.3485 -0.4571  0.4628
 2000WN      WN12104  10.737   4.021  12.448  0.1289 -0.0494 -0.0299
 2001WN      WN12105   6.430  15.521  12.249  0.2319 -0.3349 -0.1599
 2002WN      WN12106   7.387   4.687   4.056  0.0776 -0.0679 -0.0546
 2003WN      WN12107   2.932   9.929  11.899 -0.1868  0.0355  0.2306
 2004WN      WN12108  10.469   5.577   8.588 -0.2457 -0.0563  0.3966
 2005WN      WN12109   6.948   0.812  11.517 -0.1710  0.1053 -0.1543
 2006WN      WN12110   2.126   4.930   2.461 -0.1405 -0.2066  0.1584
 2007WN      WN12111   7.239   9.776  11.426  0.0856 -0.1601  0.0511
 2008WN      WN12112   3.717   5.895   3.317  0.2931  0.3563  0.0304
 2009WN      WN12113   7.080   5.238   9.177  0.0824  0.0758 -0.0042
 2010WN      WN12114  10.380  12.027   1.951  0.0950 -0.0485  0.0880
 2011WN      WN12115   9.704  15.620   9.854  0.0507  0.1801 -0.3535
 2012WN      WN12116   8.133  11.595  10.737 -0.0631  0.0973 -0.1214
 2013WN      WN12117   0.794  12.519   1.691 -0.0166 -0.2443 -0.0475
 2014WN      WN12118   0.411   1.194   3.027  0.3536 -0.0103  0.0724
 2015WN      WN12119   8.516  11.950   0.341  0.1017  0.2019 -0.1064
 2016WN      WN12120   8.928  10.708  12.909 -0.3767 -0.1232 -0.1537
 2017WN      WN12121  10.935   0.944   9.160 -0.0422 -0.0288 -0.3718
 2018WN      WN12122   1.018   9.396   8.506  0.2000 -0.5761  0.2343
 2019WN      WN12123  14.061   7.408   1.807 -0.0406  0.0275 -0.2922
 2020WN      WN12124   6.252  15.054   2.375 -0.0114 -0.5946 -0.1504
 2021WN      WN12125   2.811   3.907  11.415  0.0459  0.3437 -0.0626
 2022WN      WN12126  12.872   1.732  11.846  0.1760 -0.3095 -0.1706
 2023WN      WN12127  10.179   3.980   3.853 -0.4403  0.0238  0.0319
 2024WN      WN12128  15.449   2.995   9.514  0.2089  0.1432  0.1805
 2025WN      WN12129  11.356   1.059  10.237 -0.1266  0.1906  0.0356
 2026WN      WN12130   1.918   6.334   0.341 -0.0881 -0.0041  0.1210
 2027WN      WN12131  15.607   7.477  11.548 -0.0918 -0.0969 -0.1949
 2028WN      WN12132  15.833   5.128   9.782  0.1500 -0.0565  0.0451
 2029WN      WN12133   6.270  14.515   1.796  0.2546 -0.0641  0.1949
 2030WN      WN12134  10.202   4.110   1.357  0.1904  0.0511 -0.1194
 2031WN      WN12135   6.051   6.772  10.898 -0.3162  0.1193 -0.0629
 2032WN      WN12136   8.051   2.869   4.258 -0.4435 -0.0270 -0.0648
 2033WN      WN12137   4.585   1.346   9.719 -0.1018  0.1551  0.1097
 2034WN      WN12138  13.700   5.704   3.365 -0.2744  0.1213  0.4221
 2035WN      WN12139  14.479  12.397  11.557  0.0132  0.1543 -0.4093
 2036WN      WN12140   9.419  11.749  11.755 -0.1208  0.0110 -0.1832
 2037WN      WN12141  10.215  14.983  12.195  0.1176  0.1318 -0.0365
 2038WN      WN12142   8.400   4.131  10.833  0.1458 -0.1331  0.1294
 2039WN      WN12143   3.627   6.380   4.190  0.0141 -0.1287 -0.2207
 2040WN      WN12144   4.097   5.762  13.024 -0.3380  0.2369 -0.3194
 2041WN      WN12145   9.319  10.956  13.177  0.0204 -0.1523  0.1055
 2042WN      WN12146  15.045  10.698  12.587 -0.4175  0.1879 -0.3357
 2043WN      WN12147   0.509  13.704   2.344 -0.0117  0.3561 -0.1217
 2044WN      WN12148   1.306   4.634   2.190 -0.0267  0.1548  0.1657
 2045WN      WN12149  12.248   3.195  12.210 -0.0539  0.1893 -0.1947
 2046WN      WN12150   4.069   5.108  10.172 -0.0469  0.4824 -0.2249
 2047WN      WN12151  11.585   1.713   4.333  0.0397  0.1490 -0.1758
 2048WN      WN12152  13.606   4.050  11.265 -0.3572  0.2354  0.2095
 2049WN      WN12153  12.571  13.306   9.655  0.2918  0.0486 -0.2316
 2050WN      WN12154   4.831  15.227  11.300 -0.0683 -0.1016  0.0938
 2051WN      WN12155   5.254   9.463   9.783 -0.4196  0.1871  0.0599
 2052WN      WN12156   3.513  13.472   4.306 -0.0049 -0.0110  0.0122
 2053WN      WN12157   0.422  11.430   9.685 -0.2027  0.2653 -0.0215
 2054WN      WN12158   9.918  10.356   0.652 -0.1406 -0.3601 -0.0110
 2055WN      WN12159   0.312  10.193  11.466  0.1636  0.3498 -0.2407
 2056WN      WN12160  15.810   6.297  13.208  0.0727  0.2301  0.2382
 2057WN      WN12161  13.896   5.327   3.677  0.1024  0.2039 -0.0300
 2058WN      WN12162   4.630  15.124   9.772  0.0009 -0.2718 -0.1364
 2059WN      WN12163   8.249   5.954  10.880  0.0314  0.0480 -0.2414
 2060WN      WN12164   2.237   9.642   0.288 -0.1285 -0.0951  0.1657
 2061WN      WN12165   1.975   9.046  10.086 -0.3180 -0.2035  0.0866
 2062WN      WN12166  14.045   8.783   3.644  0.5480  0.0677 -0.2420
 2063WN      WN12167   3.243   9.062  13.379 -0.0114 -0.1097 -0.0749
 2064WN      WN12168   3.500  11.744  11.592  0.2148 -0.0101 -0.1368
 2065WN      WN12169   5.632  10.386   3.444 -0.0972  0.1422  0.0019
 2066WN      WN12170   2.978   9.907   1.248 -0.1859 -0.0656  0.1738
 2067WN      WN12171  14.096   5.205  11.998  0.1022  0.0897  0.3081
 2068WN      WN12172   2.157   9.617  10.203 -0.0743  0.0081 -0.0556
 2069WN      WN12173  14.854   1.519  12.968 -0.1080 -0.3768 -0.0038
 2070WN      WN12174   5.391   2.920   1.905 -0.3056 -0.0278  0.0594
 2071WN      WN12175  15.799  11.208   3.059 -0.4066 -0.2399 -0.3326
 2072WN      WN12176   1.965   4.768  12.551  0.0559  0.0194 -0.1746
 2073WN      WN12177   1.478   6.243   0.659  0.2096 -0.1318  0.0669
 2074WN      WN12178   2.921   3.378  12.964 -0.3663  0.2726 -0.0034
 2075WN      WN12179   8.947   1.257  12.325  0.2796  0.3343 -0.0203
 2076WN      WN12180   1.073   4.390  10.703 -0.0027 -0.1318 -0.2743
 2077WN      WN12181   6.426   9.618   1.879 -0.0530 -0.1788  0.0245
 2078WN      WN12182  15.286   0.277  11.665  0.0751 -0.1988 -0.1776
 2079WN      WN12183  10.463  15.396   4.266 -0.0112 -0.1595  0.0604
 2080WN      WN12184   0.167   6.482   1.321 -0.0011  0.1215  0.1005
 2081WN      WN12185   5.211  15.507  12.288  0.0691 -0.2853 -0.0053
 2082WN      WN12186   5.184   9.819   1.950  0.2559 -0.4370  0.0901
 2083WN      WN12187   0.248   3.397   4.018 -0.1734 -0.2965 -0.1363
 2084WN      WN12188   3.031   2.777   4.411 -0.0407  0.2191  0.1945
 2085WN      WN12189   8.656   5.795   2.199 -0.3781  0.0257 -0.1491
 2086WN      WN12190   7.386   2.840   1.314 -0.1969  0.0007  0.3097
 2087WN      WN12191  14.596   9.475   2.078  0.2167  0.1621 -0.1989
 2088WN      WN12192   3.648  13.718  10.335  0.2545 -0.2726  0.2352
 2089WN      WN12193   9.901  10.202   2.784  0.0744 -0.0491  0.1247
 2090WN      WN12194   3.894  13.725   0.730 -0.2127  0.1413 -0.1891
 2091WN      WN12195   3.103  12.992   9.679 -0.0541  0.0033  0.0600
 2092WN      WN12196   0.610  12.430  10.736 -0.2004 -0.2751 -0.1346
 2093WN      WN12197   2.762   6.817  11.637  0.0709 -0.0516  0.0528
 2094WN      WN12198  10.633   5.180   1.959  0.2356 -0.3595  0.1543
 2095WN      WN12199   9.217   5.787   2.043 -0.0719  0.0562  0.1733
 2096WN      WN12200  12.749   1.623   3.887  0.0788  0.2326  0.0466
 2097WN      WN12201   0.872  10.488   1.631  0.0258  0.0047 -0.0875
 2098WN      WN12202  13.552   0.681   1.816  0.0805 -0.2298  0.0891
 2099WN      WN12203  15.291   6.412  12.130 -0.9111 -0.0978 -0.1551
 2100WN      WN12204  12.307  15.091   2.130  0.0449 -0.4596  0.0663
 2101WN      WN12205  11.549   5.719   0.667 -0.0376 -0.0635  0.2140
 2102WN      WN12206   0.859  14.544   2.939 -0.2100  0.1497 -0.1667
 2103WN      WN12207   4.599   9.335   4.603 -0.1550  0.1113  0.1996
 2104WN      WN12208  14.160   6.363   1.450  0.1325  0.1007 -0.1610
 2105WN      WN12209  12.208   7.023  12.381  0.0572  0.0878  0.1598
 2106WN      WN12210   0.535   8.225   3.083  0.1155 -0.2029 -0.1573
 2107WN      WN12211  15.437   7.864  12.378  0.0217 -0.3871 -0.0428
 2108WN      WN12212   8.157   1.636   4.049 -0.1958 -0.0124  0.1020
 2109WN      WN12213  11.807   4.712   1.198 -0.0127  0.5134 -0.0054
 2110WN      WN12214   6.151  11.213   1.981 -0.0169  0.0555  0.0415
 2111WN      WN12215   1.759   1.999   0.645  0.0491  0.1602  0.2854
 2112WN      WN12216   4.611   6.387   0.671 -0.1279  0.3120  0.3363
 2113WN      WN12217   8.157  13.018   0.805 -0.2488 -0.1681 -0.0081
 2114WN      WN12218   6.069  11.890   9.152  0.3165  0.3108  0.0771
 2115WN      WN12219  11.263   3.917   8.833 -0.1428  0.0145  0.3128
 2116WN      WN12220   5.256   3.663   3.753 -0.0216  0.1530  0.1528
 2117WN      WN12221   1.113   6.466  11.489 -0.1250 -0.0233 -0.0582
 2118WN      WN12222  11.766   8.110  12.573  0.2298  0.0381 -0.0621
 2119WN      WN12223  14.720  12.401  13.342  0.0638 -0.0883  0.3263
 2120WN      WN12224   8.177  11.638  13.182  0.1143  0.0366  0.0887
 2121WN      WN12225   2.041   9.802   4.855 -0.0342  0.0532 -0.0847
 2122WN      WN12226  13.881   4.238   0.622 -0.0812 -0.0198  0.2497
 2123WN      WN12227   8.776   4.130   1.105 -0.3729  0.0782  0.3018
 2124WN      WN12228  10.762   8.397  10.347 -0.0359 -0.2571  0.2684
 2125WN      WN12229   7.589   0.911  12.494 -0.0109  0.1595  0.2253
 2126WN      WN12230   9.183  11.500  11.350 -0.0022  0.2485 -0.0813
 2127WN      WN12231   6.379  10.832   0.777  0.2309  0.0764 -0.2637
 2128WN      WN12232  11.723  11.821  13.282 -0.0925  0.1210  0.1749
 2129WN      WN12233   4.478   4.209  10.315  0.1306 -0.0091 -0.0942
 2130WN      WN12234  11.098  10.396   2.040 -0.0182 -0.3663 -0.1106
 2131WN      WN12235   8.918   1.759   2.598  0.0083 -0.1478  0.3006
 2132WN      WN12236  12.267  14.546   0.740 -0.1625  0.2778 -0.0183
 2133WN      WN12237  12.331  13.217   0.384 -0.1351 -0.1155 -0.0433
 2134WN      WN12238   2.735  10.169   4.246 -0.0440 -0.0651 -0.3173
 2135WN      WN12239   0.290   1.511  10.124  0.3241 -0.0793  0.0016
 2136WN      WN12240  11.985  11.998   9.330 -0.4047 -0.3744  0.1598
 2137WN      WN12241   6.351  10.898   4.475  0.1182  0.0341 -0.1679
 2138WN      WN12242   8.605   5.066   9.287 -0.3650 -0.3556  0.2011
 2139WN      WN12243  10.775   5.189   9.689 -0.1406  0.2342  0.3467
 2140WN      WN12244   3.996  12.798  12.942  0.4736 -0.2737 -0.3299
 2141WN      WN12245  14.423   3.346  10.172 -0.1793  0.1429  0.0527
 2142WN      WN12246  13.932   1.556   4.219  0.0198 -0.0045 -0.1166
 2143WN      WN12247   8.846   5.521  13.088  0.1643 -0.1333  0.2385
 2144WN      WN12248   3.598   7.278   1.242 -0.3085  0.0825  0.1255
 2145WN      WN12249  12.967  13.064  11.207 -0.0554  0.1976 -0.2102
 2146WN      WN12250   6.368   8.869   2.382 -0.0258  0.1659  0.0393
 2147WN      WN12251   3.255   4.242   0.977 -0.3276 -0.3603  0.0988
 2148WN      WN12252   3.600   5.140   0.858 -0.1391  0.2408 -0.2530
 2149WN      WN12253   3.678  12.268   3.468 -0.0481 -0.1100  0.0479
 2150WN      WN12254  14.697   7.316  10.621 -0.2420 -0.0665  0.2807
 2151WN      WN12255   0.007   9.582  12.483  0.0362 -0.0276 -0.0648
 2152WN      WN12256  11.505  14.098  10.050  0.0088 -0.1120  0.0081
 2153WN      WN12257  11.616  12.449   3.123 -0.0808  0.1260  0.3125
 2154WN      WN12258   9.367   2.556   4.725  0.1322  0.2906  0.3267
 2155WN      WN12259  13.943   9.891  11.622  0.2400 -0.3159 -0.0618
 2156WN      WN12260  13.857   1.451   3.724  0.2072 -0.0081  0.0885
 2157WN      WN12261  10.482   2.102   0.958  0.0765  0.0092  0.3125
 2158WN      WN12262  13.838   0.531  12.950 -0.4842  0.1510 -0.0108
 2159WN      WN12263  12.714   9.181   1.261 -0.1370 -0.3242 -0.1880
 2160WN      WN12264  10.128   7.451  10.591 -0.0021 -0.1359  0.1383
 2161WN      WN12265   1.644  11.519   0.501 -0.0825 -0.3873  0.1069
 2162WN      WN12266  12.329   4.206   4.262 -0.0498  0.1857 -0.0310
 2163WN      WN12267  10.793   1.507   0.028  0.1956 -0.2003 -0.3692
 2164WN      WN12268  13.205  13.440   2.045  0.0410 -0.3137  0.1190
 2165WN      WN12269   8.500   6.463  10.309 -0.2285 -0.1162  0.0991
 2166WN      WN12270   0.713  14.478   1.352 -0.1367  0.1063  0.0068
 2167WN      WN12271   4.607   2.235   9.620  0.0573 -0.0608  0.0966
 2168WN      WN12272   0.851   9.682   2.046  0.0746 -0.0914 -0.2921
 2169WN      WN12273   2.115   6.443  12.932  0.2832 -0.2995  0.2311
 2170WN      WN12274   5.173  13.260  11.662  0.2211  0.0538  0.1463
 2171WN      WN12275   2.773   6.509  10.207 -0.0670  0.0639  0.3188
 2172WN      WN12276   7.792   9.517   4.753  0.1042  0.1096 -0.0819
 2173WN      WN12277  11.417  11.457   0.621 -0.0206  0.0712 -0.2536
 2174WN      WN12278   5.114   1.611   9.623 -0.2662  0.2113  0.1028
 2175WN      WN12279   1.149  10.524   4.140  0.3980  0.2545 -0.0234
 2176WN      WN12280  10.140   4.887  13.528 -0.0193  0.0281  0.1133
 2177WN      WN12281  14.334   5.658  11.013  0.3690 -0.2238  0.4343
 2178WN      WN12282  13.115  14.161  12.446 -0.1814 -0.2318  0.2072
 2179WN      WN12283   4.412  12.597  11.493 -0.2188 -0.1416 -0.3110
 2180WN      WN12284  11.108   7.240   9.436  0.0222  0.3699  0.0316
 2181WN      WN12285   0.739   4.463  12.646 -0.1878 -0.1115  0.0007
 2182WN      WN12286   6.573   1.289  12.991  0.2239 -0.1531 -0.2529
 2183WN      WN12287   3.744  15.392   2.687 -0.1729  0.5616 -0.1873
 2184WN      WN12288  14.639   5.838  11.844  0.0450 -0.1423 -0.0067
 2185WN      WN12289   2.723  14.466   9.649  0.4670  0.0268 -0.3534
 2186WN      WN12290   8.520   6.696   9.860  0.2345  0.2440  0.0481
 2187WN      WN12291   2.611  10.625   2.208 -0.1344 -0.1847 -0.0602
 2188WN      WN12292   6.566   0.810   4.327 -0.0142 -0.0461 -0.1011
 2189WN      WN12293  12.276  11.792   9.677  0.2645 -0.1908 -0.1756
 2190WN      WN12294   4.964  13.454   1.534  0.2331  0.3069  0.3180
 2191WN      WN12295  10.759   1.482  12.152  0.1225 -0.2080  0.0701
 2192WN      WN12296  12.323   6.718   9.477 -0.2676  0.0621  0.0662
 2193WN      WN12297  10.762  10.183   0.272  0.0258 -0.0058  0.0304
 2194WN      WN12298  13.440  11.493   4.008  0.1782 -0.2766  0.1438
 2195WN      WN12299  10.601  14.026   0.219  0.3887  0.1070 -0.2112
 2196WN      WN12300   0.852   1.139   4.342  0.0438 -0.3586 -0.0739
 2197WN      WN12301   3.618   6.748   4.652 -0.1748 -0.1843  0.0354
 2198WN      WN12302   5.610  10.684   4.532  0.0433 -0.1270 -0.1065
 2199WN      WN12303  14.644  13.734  12.941  0.1610  0.0763 -0.2038
 2200WN      WN12304  11.762  15.335  12.849  0.2073  0.0713  0.1660
 2201WN      WN12305  15.693   2.774  13.140  0.2072 -0.1723  0.0488
 2202WN      WN12306  11.095   8.122   2.104  0.0020 -0.2137  0.2912
 2203WN      WN12307   0.002   4.662   1.161 -0.1470  0.3442  0.0744
 2204WN      WN12308  12.978  11.201   4.092 -0.0026 -0.0590 -0.0895
 2205WN      WN12309   2.378   6.204   2.965  0.1565  0.0212  0.3190
 2206WN      WN12310  14.547   0.034   2.701 -0.3552  0.0814 -0.1538
 2207WN      WN12311   2.769   7.787   1.233 -0.0051  0.0009 -0.0854
 2208WN      WN12312   1.855   3.883   2.429  0.1646 -0.0594 -0.0779
 2209WN      WN12313  14.011   7.266  11.279  0.0761  0.0550 -0.0022
 2210WN      WN12314  11.456   5.920   9.812 -0.0098  0.0399 -0.0837
 2211WN      WN12315   5.918  14.998  13.198 -0.2601  0.2800  0.1554
 2212WN      WN12316   8.388   1.838   3.248 -0.1933  0.1064 -0.1090
 2213WN      WN12317   3.940   8.721   2.034  0.3028  0.0385  0.1477
 2214WN      WN12318  14.285   4.380   3.382 -0.0916  0.2139  0.2308
 2215WN      WN12319   3.621   7.682   0.948 -0.0696 -0.3223  0.0270
 2216WN      WN12320   8.820   9.384  12.891  0.1374 -0.0608  0.1062
 2217WN      WN12321   6.387   2.281  10.939  0.3468 -0.0456  0.1105
 2218WN      WN12322  14.393  11.189   2.288 -0.0104  0.1054  0.3389
 2219WN      WN12323  10.031   9.731   0.451  0.0881  0.1606 -0.1748
 2220WN      WN12324   9.357  12.382   1.176  0.1406 -0.1458  0.0379
 2221WN      WN12325   0.234   5.734   1.787  0.1128 -0.1160 -0.3138
 2222WN      WN12326  10.036   8.646   0.600  0.1718 -0.0411 -0.1296
 2223WN      WN12327   4.752  14.848  11.628 -0.1425 -0.3074  0.0847
 2224WN      WN12328   1.567   4.925   2.542 -0.2073  0.1793 -0.0715
 2225WN      WN12329   8.682   0.594   0.204 -0.0324 -0.2594 -0.0468
 2226WN      WN12330   0.452   9.273   4.304 -0.2049 -0.0996  0.0651
 2227WN      WN12331   7.497  11.017  13.324 -0.0300  0.0763 -0.1060
 2228WN      WN12332   6.228   3.422  11.619 -0.0724  0.2676  0.1079
 2229WN      WN12333  15.340   2.949   4.128  0.2289 -0.0333 -0.1561
 2230WN      WN12334   5.793   3.203  10.911 -0.2217 -0.1021 -0.1361
 2231WN      WN12335   2.398   3.489  12.106  0.0772 -0.0800 -0.0987
 2232WN      WN12336   2.620   5.301   4.006 -0.4282  0.0750 -0.0094
 2233WN      WN12337   9.037   5.910  13.456 -0.1441  0.3134 -0.0599
 2234WN      WN12338   7.319  14.421  10.160 -0.1797  0.2576  0.1223
 2235WN      WN12339   1.760   9.943  12.678 -0.0681 -0.0404  0.1945
 2236WN      WN12340   7.366   6.812  12.446 -0.0431 -0.1021  0.0046
 2237WN      WN12341   0.146   1.029  10.972  0.0795  0.4302  0.1583
 2238WN      WN12342  15.621   2.721  10.748 -0.1922  0.1183  0.4896
 2239WN      WN12343   4.871  15.631   2.742  0.2100 -0.1232 -0.1194
 2240WN      WN12344   8.081  15.338   2.945  0.2517 -0.0905 -0.2194
 2241WN      WN12345  13.681  14.520   2.050  0.1288 -0.1510 -0.0006
 2242WN      WN12346  12.003  14.641   2.144  0.1210  0.3407 -0.2712
 2243WN      WN12347   3.331  11.332   1.896 -0.0930  0.3086  0.2065
 2244WN      WN12348  11.811  11.391   9.565 -0.1798 -0.0590  0.0240
 2245WN      WN12349   0.024   1.521   1.038 -0.0413 -0.1259  0.2961
 2246WN      WN12350   5.970   7.637   1.467 -0.1921 -0.1383 -0.1035
 2247WN      WN12351   7.796   6.034   1.434  0.0568  0.0526  0.0029
 2248WN      WN12352   9.687   5.300   9.224 -0.1509 -0.0378 -0.3100
 2249WN      WN12353   7.246  10.309   1.077  0.4351 -0.0055 -0.3868
 2250WN      WN12354   0.475   6.309   1.842  0.2897 -0.0621  0.0716
 2251WN      WN12355   0.029   1.433  13.192 -0.1283 -0.1268  0.1307
 2252WN      WN12356   3.465  12.203  11.805 -0.1904 -0.0784 -0.2953
 2253WN      WN12357   9.730  13.772  10.605  0.0897  0.4832 -0.0385
 2254WN      WN12358   9.966   7.239   1.716 -0.0149 -0.1419  0.0543
 2255WN      WN12359   2.836  14.721   3.648  0.2041 -0.1884  0.1275
 2256WN      WN12360   8.846  13.505  10.581 -0.2947  0.0119 -0.0227
 2257WN      WN12361  10.810  13.703   9.411 -0.0456  0.1279  0.0177
 2258WN      WN12362   8.858   9.926  11.866 -0.3229 -0.2435 -0.0190
 2259WN      WN12363  11.499   5.295   0.136  0.2218  0.1439  0.1675
 2260WN      WN12364   5.784   2.878  13.271 -0.3349 -0.0895 -0.1141
 2261WN      WN12365  10.582   0.055   1.234 -0.2960 -0.4914 -0.1415
 2262WN      WN12366   1.850   4.501   4.407 -0.1457 -0.2209  0.0680
 2263WN      WN12367  13.062   5.353  12.122 -0.0270 -0.1697 -0.0231
 2264WN      WN12368   9.230  12.992   1.880 -0.0954 -0.1314  0.0806
 2265WN      WN12369   2.823  10.347  11.599 -0.3097 -0.1552 -0.1083
 2266WN      WN12370   5.506  12.058   1.692 -0.1624  0.0624  0.1077
 2267WN      WN12371  10.624   2.776   0.125  0.1445  0.2390 -0.1067
 2268WN      WN12372   5.507   2.434   4.352 -0.4127  0.1724 -0.3888
 2269WN      WN12373  10.693  13.975  13.084  0.0310 -0.0923  0.1794
 2270WN      WN12374   6.266   8.385   2.174  0.1424 -0.4814 -0.1076
 2271WN      WN12375   4.450  13.386   0.624  0.0114  0.0990 -0.1700
 2272WN      WN12376  14.878  12.374   1.558  0.3824 -0.0644  0.1094
 2273WN      WN12377   8.256  11.301  11.561  0.2974 -0.1497  0.0871
 2274WN      WN12378   3.227  14.398   3.225  0.1372  0.0634 -0.0527
 2275WN      WN12379  15.610   2.552   4.274 -0.0679  0.0974  0.3232
 2276WN      WN12380  11.554  12.430   5.000 -0.2459 -0.1543 -0.4236
 2277WN      WN12381   6.058  10.750   1.220  0.0260  0.0040  0.0401
 2278WN      WN12382   6.680   3.815   3.068 -0.1778  0.3615 -0.1033
 2279WN      WN12383  11.138  14.315   0.809  0.0494  0.1255 -0.1086
 2280WN      WN12384  12.497  13.526  11.860 -0.3989 -0.1097  0.0068
 2281WN      WN12385  13.228   3.099  10.564 -0.1043  0.0591 -0.1636
 2282WN      WN12386   2.884  14.209  10.638 -0.2018 -0.1089 -0.2202
 2283WN      WN12387  11.896  10.654  12.664  0.1606  0.1576  0.0902
 2284WN      WN12388  13.426  10.119   0.319 -0.3488 -0.0809 -0.1150
 2285WN      WN12389  15.788   1.391   1.636  0.2214  0.5763 -0.0654
 2286WN      WN12390  15.080  13.946  11.117  0.1227 -0.1819 -0.0810
 2287WN      WN12391   5.509   1.988  13.255  0.1385  0.0583  0.0139
 2288WN      WN12392  15.299   2.174   4.171  0.2794 -0.2167 -0.0837
 2289WN      WN12393  12.913  10.723   3.623 -0.3599 -0.3505 -0.2506
 2290WN      WN12394   2.803   9.756   1.701 -0.0081 -0.2331  0.3024
 2291WN      WN12395  13.270   6.811   2.951 -0.1137  0.2142  0.2370
 2292WN      WN12396   1.128   2.505  13.426 -0.2332 -0.3480  0.1728
 2293WN      WN12397  14.240   7.983  11.098  0.0362  0.1269 -0.0066
 2294WN      WN12398   6.311   1.919  12.355 -0.3153 -0.1250  0.4051
 2295WN      WN12399   9.015  13.888   2.747  0.0520 -0.0034  0.0115
 2296WN      WN12400   7.446  13.522  11.964  0.2121 -0.0434 -0.2729
 2297WN      WN12401   1.414  10.143  10.514  0.0033 -0.1011 -0.1392
 2298WN      WN12402  13.489  13.031  10.180 -0.2737 -0.2044  0.0366
 2299WN      WN12403   7.035   8.342   1.636 -0.0715  0.2528  0.2110
 2300WN      WN12404  12.548   8.616   8.814 -0.0029  0.2803  0.0550
 2301WN      WN12405  14.070  10.129   0.692  0.0414 -0.0604 -0.1099
 2302WN      WN12406   0.136   8.932   3.409 -0.1302  0.1320  0.1334
 2303WN      WN12407   6.846   7.275  11.837  0.1142  0.0581 -0.2608
 2304WN      WN12408   9.893   3.881  12.999 -0.1688  0.1274  0.0011
 2305WN      WN12409  12.640  10.026  12.662  0.0395 -0.1789  0.0662
 2306WN      WN12410  12.087   3.971  11.644 -0.1824 -0.0759  0.1280
 2307WN      WN12411  14.544  13.454  12.431  0.1919 -0.0002  0.0142
 2308WN      WN12412  10.697  14.952  12.903 -0.0504  0.2026 -0.0040
 2309WN      WN12413  10.960   9.512   1.982  0.1757 -0.2965  0.1791
 2310WN      WN12414   6.174   1.121   4.220 -0.0433 -0.1721  0.2963
 2311WN      WN12415   8.681   0.552   1.583  0.2007  0.1738 -0.1251
 2312WN      WN12416  11.601  12.327   0.287 -0.2001 -0.0292  0.1804
 2313WN      WN12417   9.799  11.244   3.324  0.3057 -0.0774  0.0241
 2314WN      WN12418   4.124  13.367  12.546  0.2733  0.1994 -0.1500
 2315WN      WN12419  15.606   6.420   3.241 -0.2214 -0.0736 -0.1691
 2316WN      WN12420   9.572   1.514  12.780 -0.0491 -0.0336  0.0985
 2317WN      WN12421   0.854  11.868  11.371 -0.0028 -0.0504 -0.3628
 2318WN      WN12422   5.666   8.012   1.414  0.1743  0.1618  0.0808
 2319WN      WN12423  15.182   6.230   3.110  0.0005 -0.2224  0.5765
 2320WN      WN12424  10.408   8.487  12.769  0.0756  0.1426  0.0345
 2321WN      WN12425  13.300   5.197  13.502  0.1102 -0.0392 -0.0180
 2322WN      WN12426   0.776   3.060  12.771 -0.1342  0.0820  0.1798
 2323WN      WN12427   4.736  12.604  13.382 -0.0857 -0.1086 -0.2361
 2324WN      WN12428   9.692   4.293   1.452  0.4011 -0.1849 -0.2053
 2325WN      WN12429   3.764  13.228  10.210 -0.1037 -0.0904 -0.2665
 2326WN      WN12430  14.847   9.460  10.292 -0.0719 -0.0561  0.0864
 2327WN      WN12431   4.933   7.842   9.201  0.1121  0.0211 -0.2128
 2328WN      WN12432   9.857   6.828   2.229  0.0293  0.1921  0.2489
 2329WN      WN12433   7.188   4.426   0.559  0.1574 -0.0878  0.0238
 2330WN      WN12434   9.616   0.329  12.278  0.2471  0.1059 -0.0055
 2331WN      WN12435   6.140  13.015   3.660  0.0092  0.1320 -0.0247
 2332WN      WN12436  13.997  14.797  11.599  0.2413 -0.3629  0.3755
 2333WN      WN12437   7.592  10.435   2.129 -0.0637 -0.0240  0.1009
 2334WN      WN12438   2.133   7.416  10.005 -0.1160  0.5865 -0.0571
 2335WN      WN12439   6.775   2.325  11.506 -0.0384 -0.2583  0.0746
 2336WN      WN12440   8.657   6.769   9.006  0.0532  0.1482  0.0366
 2337WN      WN12441   6.802   4.004  10.637  0.2494  0.0565 -0.0619
 2338WN      WN12442  15.234   7.124   9.914 -0.0451  0.6240  0.2161
 2339WN      WN12443   7.247   6.830   2.269  0.2939  0.3245 -0.0546
 2340WN      WN12444   2.635   7.351  10.437 -0.0816  0.0877  0.1284
 2341WN      WN12445  13.339   8.541   1.516 -0.4704 -0.1003  0.2372
 2342WN      WN12446   2.595   7.425  11.441  0.2609 -0.1856  0.2598
 2343WN      WN12447   1.548  12.609   1.434 -0.1513 -0.1769 -0.2158
 2344WN      WN12448   7.071   2.928   2.152  0.1509  0.1666  0.1853
 2345WN      WN12449   7.159   6.324   2.146  0.3403  0.3195  0.1219
 2346WN      WN12450   2.760   3.773  10.442  0.0780  0.2256 -0.0731
 2347WN      WN12451  14.859   1.838   0.203 -0.1153 -0.1430 -0.0951
 2348WN      WN12452  10.659   4.044  13.472  0.0099  0.3971 -0.2735
 2349WN      WN12453   5.141  14.219   2.081  0.3338 -0.2120 -0.0865
 2350WN      WN12454   8.697  12.654  13.239 -0.2661 -0.0988  0.2441
 2351WN      WN12455   6.393  13.138  10.297 -0.4191  0.2020 -0.0936
 2352WN      WN12456  15.871  12.536   2.676 -0.1425 -0.0657  0.2571
 2353WN      WN12457   5.640   7.615   0.074  0.1032 -0.3061 -0.0790
 2354PP      PP12458   1.256  14.329   1.713 -0.0832 -0.1904  0.3403
 2355PP      PP12459   0.306   3.484   2.078  0.4619  0.1090  0.0568
 2356PP      PP12460   2.547   6.986   2.342 -0.0158 -0.3106  0.2053
 2357PP      PP12461  13.965   5.958   8.094 -0.2085  0.3010 -0.1942
 2358PP      PP12462   8.052   7.559  10.828  0.2407  0.0949  0.0205
 2359PP      PP12463  11.199   6.284   7.940 -0.0367  0.1128 -0.0534
 2360PP      PP12464  10.730   0.314   4.837  0.2298  0.0254  0.3453
 2361PP      PP12465   3.349   9.913   3.434  0.0018 -0.1719 -0.0604
 2362PP      PP12466   9.717   0.451   3.041 -0.0798  0.0132 -0.2380
 2363PP      PP12467   2.004   4.496  12.000  0.0009  0.0105 -0.0014
 2364PP      PP12468   5.324   6.379  12.217 -0.0298  0.0604  0.2539
 2365PP      PP12469  11.511   7.966   8.491 -0.3138 -0.0050 -0.0578
 2366PP      PP12470  10.926   9.684  13.092 -0.2948 -0.0488  0.0765
 2367PP      PP12471   9.802  14.042   2.589 -0.0880 -0.0119 -0.0802
 2368PP      PP12472   7.307   7.232   2.029  0.0243  0.0149  0.1745
 2369PP      PP12473  13.368   2.739  13.060 -0.3203 -0.0835 -0.2103
 2370PP      PP12474   3.995  10.657  10.205 -0.0777  0.1281 -0.2141
 2371PP      PP12475  15.702  15.499  10.359  0.1951 -0.4110  0.0075
 2372PP      PP12476  11.482  12.035  10.910  0.2581  0.0122  0.2675
 2373PP      PP12477  12.321   7.649   2.680 -0.1181  0.2530  0.2505
 2374PP      PP12478   7.388   3.242   3.584 -0.4276  0.0714  0.0994
 2375PP      PP12479  13.515  14.300   1.642 -0.0297  0.1025  0.1497
 2376PP      PP12480  15.462  13.367   2.236  0.0220 -0.0079  0.0028
 2377PP      PP12481   0.900  11.079  12.133 -0.2174 -0.2736 -0.0409
 2378PP      PP12482  10.505  15.633   0.374 -0.1380 -0.2884 -0.0958
 2379PP      PP12483   2.458  12.958   3.193 -0.1366  0.0942 -0.0812
 2380PP      PP12484  10.978  13.595   2.946  0.1483 -0.4692  0.0099
 2381PP      PP12485  14.969  13.290  10.356 -0.0834  0.2350 -0.1812
 2382PP      PP12486   5.765  11.885  11.481  0.0146 -0.0665  0.2720
 2383PP      PP12487  11.216  11.481  11.658 -0.0373  0.0290  0.4724
 2384PP      PP12488   0.359  12.700  12.342  0.0646 -0.1303 -0.1010
 2385PP      PP12489  14.531   2.596  11.201  0.2940  0.1612 -0.1059
 2386PP      PP12490   9.582   8.790  12.522 -0.0734 -0.0223 -0.0276
 2387PP      PP12491   7.324   3.725  11.530 -0.3363  0.0112 -0.0634
 2388PP      PP12492   6.450   7.359   9.605 -0.0459  0.1967  0.3175
 2389PP      PP12493   9.751  14.470  11.931 -0.0975  0.0811  0.0901
 2390PP      PP12494   5.712  11.812   0.143 -0.1399  0.1057 -0.1034
 2391PP      PP12495   6.738  11.344   3.153  0.0712 -0.2382 -0.0687
 2392PP      PP12496  11.208   1.628   9.621  0.2240 -0.1154  0.4018
 2393PP      PP12497   5.100   2.690   2.292 -0.1555  0.2077  0.0442
 2394PP      PP12498  10.948  12.557  10.211  0.0338  0.1844  0.1433
 2395PP      PP12499   0.246   6.131  11.771  0.0484  0.4896 -0.2471
 2396PP      PP12500   4.450   4.940   3.017  0.0761  0.0321  0.2690
 2397PP      PP12501  14.584   9.778   3.305 -0.1662  0.2329 -0.0223
 2398PP      PP12502   8.853   2.245   3.218 -0.0430  0.0814 -0.0222
 2399PP      PP12503  15.439   2.108  11.207 -0.1033 -0.2020 -0.2858
 2400PP      PP12504   4.931   9.834   1.479  0.0148  0.0668  0.0443
 2401PP      PP12505   7.402   9.998   3.275  0.0384 -0.0972  0.1110
 2402PP      PP12506   3.982   4.156  11.393 -0.0260 -0.0249  0.0935
 2403PP      PP12507   9.797  10.248   2.290 -0.2227 -0.0557 -0.0043
 2404PP      PP12508  14.145   5.856   2.704  0.1343 -0.1366  0.2880
 2405PP      PP12509   5.223  13.325   4.638  0.0056 -0.0391 -0.0538
 2406PP      PP12510  12.460   9.613  12.479 -0.0975 -0.2031  0.1406
 2407PP      PP12511   3.355   5.631   1.056 -0.0818  0.2473 -0.1216
 2408PP      PP12512   5.385   5.882  12.166  0.1184  0.1371 -0.0634
 2409PP      PP12513  10.802  14.198  11.123 -0.3229 -0.0786  0.0391
 2410PP      PP12514  14.816   0.148  11.600 -0.0468 -0.0644 -0.0044
 2411PP      PP12515   6.728   0.161   4.585 -0.0976  0.1456  0.1450
 2412PP      PP12516   1.106  11.701   0.674 -0.3789  0.2814 -0.0282
 2413PP      PP12517   0.674   5.948  12.674  0.3286  0.1006  0.0447
 2414PP      PP12518  13.596   4.007   1.606 -0.0713 -0.3216 -0.0419
 2415PP      PP12519  13.281   0.469  12.037 -0.1484 -0.0942 -0.0839
 2416PP      PP12520   5.254   5.088  11.584 -0.4142 -0.0008  0.0939
 2417PP      PP12521   4.647  14.561  11.138  0.4406  0.2508  0.1336
 2418PP      PP12522  13.196   4.359  11.154  0.0817  0.0585  0.0697
 2419PP      PP12523  11.313  13.442   1.565 -0.0728 -0.2068  0.2429
 2420PP      PP12524  15.127  14.973  12.820 -0.2290  0.2069  0.1228
 2421PP      PP12525  11.929   4.079   8.844  0.2181  0.1701  0.0481
 2422PP      PP12526   0.177   8.712   9.113  0.0032  0.0872 -0.1757
 2423PP      PP12527   9.801   5.598   1.555 -0.0220 -0.1622  0.2192
 2424PP      PP12528   5.520   0.688  10.441  0.0374 -0.1446  0.2427
 2425PP      PP12529  15.839   7.751  12.784 -0.2974 -0.0610 -0.0128
 2426PP      PP12530   5.879  15.052  11.207  0.0347  0.1211 -0.2222
 2427PP      PP12531  13.286   7.109  12.459 -0.0806 -0.1642  0.2417
 2428PP      PP12532   4.269   1.344   2.420  0.2952  0.3737 -0.0726
 2429PP      PP12533   0.284  15.156   0.239  0.0245 -0.2191 -0.1153
 2430PP      PP12534  13.436   8.576   2.571  0.0224  0.2006  0.1673
 2431PP      PP12535   9.043   7.315   4.001  0.2711  0.4979 -0.0384
 2432PP      PP12536  12.941   7.563  10.901 -0.0286  0.1091 -0.1406
 2433PP      PP12537   8.603   0.012  11.813  0.1227 -0.0886  0.2816
 2434PP      PP12538   3.193   3.604  10.580 -0.1175 -0.0292  0.0827
 2435PP      PP12539  12.497   4.398   9.735 -0.3325 -0.0946  0.2230
 2436PP      PP12540  11.665  10.279   9.447 -0.0413 -0.0134 -0.1480
 2437PP      PP12541   6.855  13.341  12.203 -0.2818 -0.1012  0.1472
 2438PP      PP12542   7.530   3.677  10.689  0.2305  0.0212 -0.1388
 2439PP      PP12543  10.864   7.487   8.194  0.0879 -0.1583 -0.0474
 2440PP      PP12544  14.689  14.616   0.821  0.0032  0.0059  0.2462
 2441PP      PP12545  13.291   4.910  11.967 -0.1270  0.2673 -0.1748
 2442PP      PP12546   3.296   3.205   0.658 -0.0400  0.1228 -0.0405
 2443PP      PP12547   2.831   1.288   1.864  0.0516 -0.0745  0.0484
 2444PP      PP12548  10.284  12.154  11.605  0.0253  0.0450  0.1637
 2445PP      PP12549   2.214   5.937  10.247 -0.1477  0.1658  0.0939
 2446PP      PP12550   5.048  12.407   9.986 -0.1425 -0.0144  0.0725
 2447PP      PP12551   9.208   6.928  13.084 -0.2649 -0.1688 -0.0448
 2448PP      PP12552   8.285   8.003  12.952  0.0246  0.3984 -0.0226
 2449PP      PP12553   2.885  15.317   2.660 -0.0161 -0.1612  0.1057
 2450PP      PP12554   9.873   4.500   8.906 -0.0377  0.0460  0.1111
 2451PP      PP12555  15.342   8.395  12.611  0.1255 -0.1593  0.2883
 2452PP      PP12556   2.979   8.153  13.533  0.0825 -0.0730 -0.2035
 2453PP      PP12557   1.246  11.489   0.193  0.2551  0.2575  0.1981
 2454PP      PP12558   7.694  15.340  11.134 -0.1902  0.4914  0.0290
 2455PP      PP12559   0.520   7.015   8.862  0.2333  0.1524 -0.1368
 2456PP      PP12560   8.952  10.217  10.559 -0.1342 -0.1394  0.3409
 2457PP      PP12561  13.003  13.617   0.864  0.0509  0.0715  0.0170
 2458PP      PP12562  13.399  14.565   8.933  0.0152 -0.0793  0.2333
 2459PP      PP12563   6.824   3.399   2.850 -0.3006 -0.0407  0.3489
 2460PP      PP12564   7.248  10.371  12.546  0.1373 -0.3313  0.3557
 2461PP      PP12565   2.050   5.107   1.875  0.1457 -0.0406 -0.2033
 2462PP      PP12566   4.514   2.322   0.082 -0.2282 -0.1797  0.0895
 2463PP      PP12567   4.160   7.007   3.446 -0.3161  0.0891 -0.0659
 2464PP      PP12568   9.859   8.840  10.598 -0.0425 -0.0986  0.1078
 2465PP      PP12569  12.842   9.250   1.816  0.0152 -0.0699 -0.0787
 2466PP      PP12570  13.236   8.773   8.628 -0.0127 -0.0581  0.1177
 2467PP      PP12571   9.192   1.114   2.437  0.2091 -0.2334  0.0743
 2468PP      PP12572   7.831   6.890   8.381 -0.1045 -0.3395 -0.0980
 2469PP      PP12573   3.376   8.731   9.129  0.0750 -0.0110  0.2401
 2470PP      PP12574   4.368   3.997   3.011  0.0234 -0.0307  0.0083
 2471PP      PP12575   8.477   5.790   3.303 -0.2974  0.0799 -0.1483
 2472PP      PP12576  13.882   5.529   0.685  0.4602  0.0927 -0.0295
 2473PP      PP12577  12.683  11.860   1.738 -0.2153 -0.1087  0.3124
 2474PP      PP12578   0.400   4.434   0.750  0.0387 -0.1265 -0.1457
 2475PP      PP12579   5.849  13.173   3.088 -0.0850 -0.0714 -0.3683
 2476PP      PP12580   2.956   3.336   1.916 -0.2971 -0.3529 -0.1941
 2477PP      PP12581  13.270   0.093   9.148 -0.0121  0.1278  0.0185
 2478PP      PP12582   9.283   0.022   9.682 -0.1183  0.1319 -0.1548
 2479PP      PP12583   5.072  15.125   1.200 -0.1285  0.1045 -0.0399
 2480PP      PP12584   2.982   9.874   9.634  0.3064  0.2072 -0.4698
 2481PP      PP12585  11.515   9.641   3.285  0.1902  0.1121 -0.0442
 2482PP      PP12586   7.958   5.102   1.206  0.0285 -0.0631 -0.0233
 2483PP      PP12587  15.601   3.644  10.300 -0.0563  0.1497  0.1222
 2484PP      PP12588   9.320   8.855   9.813  0.1638  0.1005  0.0347
 2485PP      PP12589   9.162  10.850  11.823  0.1311 -0.1730  0.0304
 2486PP      PP12590  15.856   2.154   9.687  0.2999  0.0923  0.2227
 2487PP      PP12591  10.839   0.672  12.601 -0.2328  0.0485 -0.2007
 2488PP      PP12592  11.323  13.258   0.159  0.3202 -0.1001  0.0795
 2489PP      PP12593  12.438  14.028  10.743  0.0519 -0.0831 -0.0954
 2490PP      PP12594   9.158   9.496  12.090 -0.0805  0.1089 -0.3300
 2491PP      PP12595   2.949  15.179   1.014 -0.3603 -0.2357  0.2275
 2492PP      PP12596  11.303  15.734   9.390  0.0371 -0.0689  0.0252
 2493PP      PP12597  14.152  11.568   3.403 -0.1869  0.2164  0.0125
 2494PP      PP12598  12.050   7.381  11.511 -0.2158  0.0247  0.0554
 2495PP      PP12599  12.071  13.830  10.467  0.2523 -0.2318  0.1791
 2496PP      PP12600   9.386   3.357   3.572 -0.1231 -0.1271  0.1686
 2497PP      PP12601   7.657  14.262   1.318  0.1116  0.1802  0.0581
 2498PP      PP12602   5.721   9.905   3.238  0.2899  0.2433 -0.2435
 2499PP      PP12603   3.429   8.794   2.829  0.2024  0.0666 -0.0937
 2500PP      PP12604   7.334   4.820   0.267  0.1524 -0.1114 -0.1877
 2501PP      PP12605   4.916   0.951   0.423  0.3590  0.0451 -0.1990
 2502PP      PP12606   6.418  12.904   9.024 -0.2266 -0.1600 -0.2150
 2503PP      PP12607   2.089   4.295  12.844  0.2495 -0.1600 -0.4660
 2504PP      PP12608   3.784   1.293   0.970 -0.0652 -0.0141 -0.0569
 2505PP      PP12609   8.876  10.268   1.758  0.0819  0.0964  0.0859
 2506PP      PP12610   5.636  15.681   4.622  0.3285 -0.0702  0.1910
 2507PP      PP12611  11.094   0.679  12.085  0.2478 -0.0054  0.0951
 2508PP      PP12612   9.288   6.263   1.263  0.2304 -0.1995  0.0387
 2509PP      PP12613   7.635   1.622   1.926  0.0169 -0.2727  0.2194
 2510PP      PP12614   3.922   6.091   8.974  0.2359  0.1246 -0.3572
 2511PP      PP12615  13.829  11.343  10.546 -0.0495 -0.1628 -0.0393
 2512PP      PP12616   5.347   3.364   4.789  0.0486  0.0302  0.3171
 2513PP      PP12617  15.251   8.235   2.846  0.2267  0.1327 -0.2591
 2514PP      PP12618   6.137   4.601  11.951 -0.2834  0.1283  0.2055
 2515PP      PP12619  13.154  15.143  11.126  0.0694 -0.1117 -0.0931
 2516PP      PP12620   2.925   8.969   0.787  0.1319 -0.0262  0.1577
 2517PP      PP12621   7.390   7.419   4.364  0.0264 -0.0721  0.0364
 2518PP      PP12622  11.620   9.108  12.517 -0.1688  0.1322  0.1510
 2519PP      PP12623   2.608  10.439   3.785  0.1485  0.1034  0.1614
 2520PP      PP12624   4.766   5.205  13.418 -0.0319  0.2005 -0.0527
 2521PP      PP12625   9.313   2.803   9.414 -0.2428  0.0781 -0.1238
 2522PP      PP12626  14.862  14.322   0.476 -0.2987  0.0211  0.1522
 2523PP      PP12627  15.093  14.616   9.593  0.0975  0.1456 -0.1275
 2524PP      PP12628   7.092   0.559   3.253 -0.2850  0.0136 -0.1725
 2525PP      PP12629  15.521  13.790   1.729 -0.0222 -0.3072  0.0314
 2526PP      PP12630   2.267  11.501   2.480 -0.1904 -0.3321  0.3239
 2527PP      PP12631   9.824   4.095   2.306  0.0086  0.1247  0.1808
 2528PP      PP12632   4.875   0.460   4.297  0.0525 -0.0286  0.2212
 2529PP      PP12633   7.436  14.729   1.268  0.0479 -0.0425  0.1337
 2530PP      PP12634   7.356   4.302   9.965  0.0628  0.0548 -0.0973
 2531PP      PP12635   1.396  12.376  13.060 -0.1221  0.2567 -0.1271
 2532PP      PP12636   5.543   7.138  11.475  0.1706  0.0254 -0.0446
 2533PP      PP12637   4.230  12.300   2.520  0.0255 -0.1613 -0.0103
 2534PP      PP12638   0.771   6.759   0.944  0.2541 -0.2917 -0.0699
 2535PP      PP12639   8.918   3.940   2.102 -0.2257  0.3004  0.0942
 2536PP      PP12640   3.749   1.032  13.350  0.1077  0.1139 -0.0726
 2537PP      PP12641   0.258   2.753   1.322 -0.2412 -0.2459 -0.0508
 2538PP      PP12642  12.205  13.001   9.011 -0.3105 -0.0893  0.0088
 2539PP      PP12643   9.914   1.088   5.037 -0.0831  0.0208  0.1544
 2540PP      PP12644   0.627  13.934  11.121 -0.0405  0.0205 -0.2075
 2541PP      PP12645   1.301   5.021   1.861  0.1445 -0.1340 -0.0866
 2542PP      PP12646   6.957   5.940   3.279  0.0062  0.0530  0.2934
 2543PP      PP12647   1.124   1.860   2.001 -0.2617  0.1179 -0.0554
 2544PP      PP12648   0.409  10.756   4.007 -0.0564 -0.0254  0.1443
 2545PP      PP12649  15.179   3.884   1.892  0.1724  0.1385 -0.1955
 2546PP      PP12650   6.330  12.579   0.887  0.0188 -0.0598 -0.0629
 2547PP      PP12651   5.092  10.873  13.283 -0.1385  0.1888 -0.0432
 2548PP      PP12652   6.329   5.167   1.483 -0.0502 -0.1378  0.0067
 2549PP      PP12653   8.883   6.862   3.920  0.0036  0.1471 -0.0494
 2550PP      PP12654  12.954   5.281   1.042  0.0013  0.0721  0.0027
 2551PP      PP12655  14.330   6.071   0.069 -0.2434 -0.0812 -0.2816
 2552PP      PP12656   8.525   3.025   0.030  0.2689  0.2016 -0.0089
 2553PP      PP12657  13.974   8.475   0.987  0.1999 -0.2173  0.0576
 2554PP      PP12658   9.907  12.656   0.262  0.2070 -0.0477  0.0391
 2555PP      PP12659   2.400   2.007   4.506 -0.1919 -0.1627  0.1638
 2556PP      PP12660  15.531  14.682   9.814  0.3323 -0.3156  0.3897
 2557PP      PP12661  12.240   4.117  11.180 -0.0482  0.1513 -0.0042
 2558PP      PP12662  13.413   4.294  13.293  0.1932 -0.2150  0.3893
 2559PP      PP12663  11.150   6.841   2.908  0.0609 -0.0146  0.0107
 2560PP      PP12664  13.276  12.429   2.552  0.1137 -0.0969 -0.1580
 2561PP      PP12665   0.579   3.845   3.764  0.0388  0.2780  0.2639
 2562PP      PP12666   1.537  14.341  12.964  0.2023 -0.2108 -0.4247
 2563PP      PP12667   0.970   9.343   4.420 -0.0878 -0.0590 -0.2094
 2564PP      PP12668   0.641   2.679   2.365  0.0476 -0.1178 -0.0360
 2565PP      PP12669  10.768   8.313   0.512  0.1507  0.2659 -0.1896
 2566PP      PP12670   4.599   9.066   9.933  0.2512 -0.0662 -0.1468
 2567PP      PP12671  11.790   4.275  13.093  0.1937  0.2104 -0.0049
 2568PP      PP12672  13.527   8.214   8.641 -0.2507  0.1473  0.1343
 2569PP      PP12673  12.558   5.443  10.752  0.0935 -0.2507  0.1289
 2570PP      PP12674   5.737  14.109   1.278 -0.0856  0.2773  0.1225
 2571PP      PP12675  15.590  15.661   3.043  0.0285 -0.0101  0.0006
 2572PP      PP12676  15.548  14.115   2.772  0.1274  0.2543 -0.0534
 2573PP      PP12677   1.479  15.840   3.801 -0.0437  0.2255  0.0419
 2574PP      PP12678   4.656  11.644   1.989  0.4549 -0.1202  0.0002
 2575PP      PP12679   8.333   5.199   9.870  0.0574  0.0782 -0.2910
 2576PP      PP12680   9.636   8.741  11.158 -0.3073  0.1914 -0.0982
 2577PP      PP12681   4.346   9.955   9.123  0.1727 -0.2057  0.0452
 2578PP      PP12682   0.094   5.320  11.818  0.0445 -0.0465  0.0061
 2579PP      PP12683   0.065   4.454  11.798  0.1273  0.2953  0.0825
 2580PP      PP12684  15.563   6.388   8.773  0.0656 -0.1171 -0.3746
 2581PP      PP12685  11.507   8.868   1.997 -0.0372  0.0960  0.2929
 2582PP      PP12686   7.531   8.347  10.165  0.0057 -0.4110  0.2245
 2583PP      PP12687  15.441  11.914   2.139 -0.0051 -0.0262  0.0212
 2584PP      PP12688   2.159   2.383   3.488 -0.0060 -0.2318  0.1273
 2585PP      PP12689   4.432   3.936   4.590  0.3622 -0.1120 -0.4845
 2586PP      PP12690   9.223   3.269   4.106  0.1161  0.1134 -0.1261
 2587PP      PP12691   0.379  11.359   2.881  0.1330  0.1181  0.0594
 2588PP      PP12692  11.778   5.591  13.286  0.2486 -0.1764 -0.0812
 2589PP      PP12693   0.969   2.864  12.109 -0.2914 -0.2938 -0.1947
 2590PP      PP12694   2.642   1.419   9.756  0.1236 -0.2309 -0.1890
 2591PP      PP12695   6.653   4.153  11.143 -0.0306 -0.1092  0.4626
 2592PP      PP12696  10.124   5.399   8.980 -0.1546 -0.0782  0.0344
 2593PP      PP12697  13.567   2.778  12.562  0.2404  0.1881  0.0920
 2594PP      PP12698   0.113   4.857   0.669 -0.0189  0.0729  0.0761
 2595PP      PP12699  13.930   7.090   8.287 -0.2877  0.2130  0.0141
 2596PP      PP12700  11.966   0.235  11.234  0.0459 -0.3231 -0.0076
 2597PP      PP12701   5.001   6.836   1.601  0.1800 -0.0261  0.0867
 2598PP      PP12702  10.158   9.849  12.963 -0.1625  0.2310  0.2107
 2599PP      PP12703   2.931  14.352  13.319 -0.1761 -0.0694 -0.1026
 2600PP      PP12704   9.994   5.408   0.894  0.0301  0.2284  0.4670
 2601PP      PP12705  14.687   3.254  12.475 -0.1182 -0.1046 -0.1807
 2602PP      PP12706   3.516   0.845   3.852  0.0204 -0.2130 -0.1340
 2603PP      PP12707  14.481   4.880   8.818 -0.0413  0.1018 -0.0343
 2604PP      PP12708   6.744   3.200   4.308 -0.0847  0.0643  0.1781
 2605PP      PP12709  12.281   6.570   7.382  0.2882  0.0055 -0.2043
 2606PP      PP12710  15.235  14.517   1.036 -0.0944  0.2061 -0.0713
 2607PP      PP12711  12.492   0.793  13.330 -0.4143  0.4243 -0.0933
 2608PP      PP12712   1.139   9.542   9.922  0.3446  0.2364  0.0739
 2609PP      PP12713   5.598  15.345  12.899 -0.0135 -0.1663 -0.1195
 2610PP      PP12714   6.079  13.882   4.222 -0.2834  0.3372  0.0895
 2611PP      PP12715  10.668  11.818   9.361 -0.0415  0.1386 -0.2097
 2612PP      PP12716   9.227   6.178   3.439 -0.0142  0.2353 -0.0415
 2613PP      PP12717  11.905   9.675  10.477 -0.5324  0.0845  0.0294
 2614PP      PP12718   1.502   5.063  13.245  0.0596  0.1287  0.2945
 2615PP      PP12719   0.651  12.561  11.927 -0.0378  0.0972 -0.0482
 2616PP      PP12720   2.059  15.498   2.409 -0.0822  0.0070 -0.0245
 2617PP      PP12721   1.581   7.878  10.094 -0.1937 -0.2839 -0.2135
 2618PP      PP12722   5.723   7.222  13.307 -0.0345 -0.3282 -0.3269
 2619PP      PP12723  14.792   5.529  12.910 -0.2736 -0.3978  0.3200
 2620PP      PP12724  11.327   1.415   2.538  0.1795 -0.1321 -0.1217
 2621PP      PP12725   6.171   1.341  10.384 -0.1930  0.0534 -0.2981
 2622PP      PP12726  15.850   6.109   3.807  0.2086  0.0755 -0.0865
 2623PP      PP12727   3.391  14.302   8.690  0.1067 -0.1393 -0.0428
 2624PP      PP12728   4.321  13.194   8.788  0.3297  0.0036  0.0278
 2625PP      PP12729   5.160   6.159   0.640  0.0827  0.2292 -0.0361
 2626PP      PP12730   1.519   4.014  12.831  0.2664 -0.0048 -0.1927
 2627PP      PP12731   8.688   3.299   0.436 -0.0559 -0.0287 -0.2546
 2628PP      PP12732  10.920  13.212  13.066  0.0988 -0.5132  0.1374
 2629PP      PP12733  10.091   1.469  11.958 -0.1048 -0.2643  0.0486
 2630PP      PP12734   0.177   7.284  10.708  0.0558 -0.1326  0.0689
 2631PP      PP12735   0.254   8.480   2.602  0.2409  0.1635  0.3044
 2632PP      PP12736   2.076   1.217   2.779  0.1076  0.1448  0.0471
 2633PP      PP12737   1.365   0.804  12.523  0.0984 -0.0001 -0.0156
 2634PP      PP12738  14.480   7.312   9.324  0.0675  0.0505  0.2833
 2635PP      PP12739   8.424   1.229  11.431 -0.0916 -0.0438 -0.2153
 2636PP      PP12740  14.088  12.358   1.270 -0.0716  0.0609  0.0281
 2637PP      PP12741   6.685   3.056  10.913  0.2220  0.0678  0.0652
 2638PP      PP12742  12.145   7.163  10.120 -0.1812  0.0520 -0.0167
 2639PP      PP12743  13.193   8.375   0.415  0.0616 -0.0767  0.0520
 2640PP      PP12744   0.264  11.849  12.109 -0.1388  0.1648 -0.0465
 2641PP      PP12745  13.469   5.070  10.074 -0.1376 -0.2987  0.0088
 2642PP      PP12746   7.326   6.450   0.637 -0.1190 -0.2244 -0.1609
 2643PP      PP12747   2.072   1.184   1.908  0.1369 -0.0370 -0.0382
 2644PP      PP12748   8.737   9.640  10.135 -0.1387 -0.0004  0.0019
 2645PP      PP12749  12.276  13.506  10.005  0.1783  0.1627  0.0849
 2646PP      PP12750  14.037  14.359   3.273  0.1179 -0.0812  0.1574
 2647PP      PP12751  10.978   2.824   2.056 -0.0383 -0.0870 -0.0370
 2648PP      PP12752  13.068   5.242   8.876 -0.0262  0.1642  0.0203
 2649PP      PP12753   5.255  13.877   0.589 -0.0372 -0.1218  0.1275
 2650PP      PP12754  14.356  10.816   2.629  0.1733  0.3316  0.1660
 2651PP      PP12755   1.759   0.758   3.140  0.0899 -0.2929  0.0547
 2652PP      PP12756   8.178   3.173   4.783 -0.0385 -0.1785 -0.1881
 2653PP      PP12757  10.398  14.056   9.315  0.1615 -0.0171  0.3070
 2654PP      PP12758  15.081  14.032   9.689 -0.2366 -0.1215  0.0794
 2655PP      PP12759   8.639  15.144   9.819  0.1573  0.1999  0.1046
 2656PP      PP12760   9.417   2.589  10.895 -0.0507 -0.0214  0.2070
 2657PP      PP12761   8.015   8.395  10.406 -0.1959  0.1192  0.2024
 2658PP      PP12762   1.169   2.367  12.384 -0.1716  0.2007 -0.0128
 2659PP      PP12763   3.111   4.241   2.891  0.0339  0.2596  0.1979
 2660PP      PP12764   4.661   6.303   2.453 -0.0714  0.1887 -0.2133
 2661PP      PP12765   0.329   0.831  12.255  0.1656  0.0184 -0.0395
 2662PP      PP12766   3.651  15.635   3.195 -0.3321  0.1431  0.2263
 2663PP      PP12767   1.775   3.033   2.678 -0.0357 -0.0147  0.0090
 2664PP      PP12768  14.009  12.563  11.658  0.0367  0.2754 -0.3715
 2665PP      PP12769   5.473  10.333  12.155 -0.0265  0.2078 -0.0889
 2666PP      PP12770   8.875   6.663   3.328 -0.0507 -0.0198 -0.2591
 2667PP      PP12771   6.312   5.837  11.496  0.1899  0.0404 -0.0189
 2668PP      PP12772  10.031   2.292  11.301 -0.0192  0.1622 -0.3194
 2669PP      PP12773   7.962  10.233   9.888 -0.3074 -0.1703 -0.0180
 2670PP      PP12774  10.283  11.425   3.236  0.0289 -0.2492  0.1571
 2671PP      PP12775  14.836   9.916   4.549 -0.1151 -0.0567  0.1293
 2672PP      PP12776  13.895  10.761   3.359 -0.1951 -0.1148 -0.0893
 2673PP      PP12777   2.742  13.730   2.233 -0.1648  0.1920  0.0219
 2674PP      PP12778   8.987  15.405   2.708 -0.1912  0.2791  0.3278
 2675PP      PP12779  12.788   0.866  11.063 -0.0301 -0.0039  0.2357
 2676PP      PP12780  12.709  12.897   1.645 -0.1790 -0.0897 -0.1049
 2677PP      PP12781   1.697   6.480  10.104  0.1164 -0.2445  0.4193
 2678PP      PP12782   4.203   0.910  11.712 -0.0943  0.3026  0.0202
 2679PP      PP12783   0.980  12.875   3.181  0.0586 -0.0285  0.0346
 2680PP      PP12784   2.158   2.515   2.789 -0.1059  0.1163  0.1228
 2681PP      PP12785   2.498  15.666  12.017  0.0557 -0.2562 -0.0217
 2682PP      PP12786   9.056   7.816   8.812 -0.4174 -0.0961 -0.0784
 2683PP      PP12787  10.172   2.747  10.962  0.1451  0.0079  0.0878
 2684PP      PP12788  10.348   5.150   0.630 -0.1369 -0.0426  0.1807
 2685PP      PP12789   1.908  14.202  13.314  0.2949 -0.1527  0.1249
 2686PP      PP12790   1.734   2.654  10.839 -0.1450  0.5158  0.1419
 2687PP      PP12791   0.267   5.502   0.997  0.0389 -0.0225  0.1807
 2688PP      PP12792   7.290   6.270  12.961  0.0165  0.3069  0.4002
 2689PP      PP12793   0.576  10.912   2.684  0.1417  0.0022  0.2086
 2690PP      PP12794   1.935  15.556   9.631 -0.2615  0.2065 -0.2151
 2691PP      PP12795   4.327   1.688   1.915 -0.1596 -0.2575  0.0327
 2692PP      PP12796  11.924   4.342   3.424  0.1084 -0.0651  0.0226
 2693PP      PP12797   5.050   4.571   4.410 -0.1673  0.0068 -0.0900
 2694PP      PP12798   1.462   1.207   4.243 -0.2173  0.2428 -0.0498
 2695PP      PP12799   6.618   4.570   4.155  0.2179  0.1626  0.2747
 2696PP      PP12800  12.307   3.674  10.439  0.1088 -0.0306  0.0775
 2697PP      PP12801  14.475   8.847   0.436  0.0973 -0.0179  0.0296
 2698PP      PP12802  11.940   8.533  10.993  0.1566 -0.0448 -0.1904
 2699PP      PP12803   3.046   7.442  10.185  0.2003 -0.2426  0.0283
 2700PP      PP12804  11.149   3.804   2.924 -0.0311  0.1970  0.2032
 2701PP      PP12805   6.590  12.908   3.886 -0.1480 -0.1947 -0.0538
 2702PP      PP12806   1.860   5.084  11.689 -0.2281  0.2535  0.0258
 2703PP      PP12807   3.539   2.353  12.078 -0.0020  0.0865 -0.0463
 2704PP      PP12808  13.592   5.729   7.790 -0.0754  0.3009 -0.0491
 2705PP      PP12809  13.043   7.702   8.463 -0.1471  0.1921  0.2311
 2706PP      PP12810  13.195   7.071  11.925  0.0786  0.6272  0.1261
 2707PP      PP12811  13.905   0.752   0.936 -0.4645 -0.1843 -0.0681
 2708PP      PP12812  12.609   9.227   9.387 -0.1291 -0.0329  0.0784
 2709PP      PP12813   2.744  10.577  11.104 -0.0458 -0.0614 -0.2000
 2710PP      PP12814   7.280   5.972   1.024 -0.1697  0.2794 -0.0140
 2711PP      PP12815   0.209  15.027   4.311 -0.0642 -0.2268  0.2009
 2712PP      PP12816   4.015  13.107   9.292  0.0028 -0.0982  0.2109
 2713PP      PP12817  11.743  11.920   4.336  0.3143  0.0070 -0.1855
 2714PP      PP12818  10.426   4.960   1.095 -0.2587 -0.4150  0.1768
 2715PP      PP12819   1.193  11.387  11.300  0.1094 -0.0495 -0.1780
 2716PP      PP12820   5.562  14.477  11.058  0.0815 -0.1840 -0.3233
 2717PP      PP12821   4.201   0.070   0.227 -0.0461 -0.0933  0.2653
 2718PP      PP12822   1.994   3.226  10.537  0.2006 -0.3833  0.1211
 2719PP      PP12823  11.728  12.641   1.539  0.1613  0.0525 -0.1247
 2720PP      PP12824   3.732   3.047   5.017 -0.0140 -0.0490 -0.1650
 2721PP      PP12825   5.011  12.105   3.185 -0.0258  0.0588 -0.2869
 2722PP      PP12826   3.051   9.560  11.198  0.6764 -0.0496 -0.2404
 2723PP      PP12827   7.359   2.038   4.041 -0.1034  0.0267 -0.3762
 2724PP      PP12828  14.360   0.951   0.771  0.1343  0.2778  0.0347
 2725PP      PP12829   7.060   8.505   1.013  0.4222  0.1104 -0.2923
 2726PP      PP12830  14.921   9.790  13.073 -0.2239  0.0642 -0.0866
 2727PP      PP12831   2.503  14.177   1.832 -0.0521  0.0797 -0.3183
 2728PP      PP12832  13.723   7.365   0.256 -0.1573  0.0042  0.0811
 2729PP      PP12833   9.981  15.452   4.375  0.4016 -0.2449  0.0055
 2730PP      PP12834   2.852   9.038  11.281 -0.4383 -0.0173 -0.1339
 2731PP      PP12835   2.190   9.021  12.715  0.1548 -0.0714 -0.4621
 2732PP      PP12836  12.776   7.509   2.356  0.3203 -0.3117 -0.2817
 2733PP      PP12837   0.944   4.708   2.679  0.2780 -0.2306  0.0564
 2734PP      PP12838   5.810   2.526   1.702 -0.0505  0.1755 -0.1721
 2735PP      PP12839  15.301   5.540   9.685  0.1629  0.1809 -0.1747
 2736PP      PP12840   2.844   5.499  10.688 -0.0848  0.0623  0.2071
 2737PP      PP12841   8.495   3.297   3.359 -0.1019  0.0793  0.3137
 2738PP      PP12842  15.620   8.804   4.352  0.0735 -0.1792  0.1609
 2739PP      PP12843   8.617   0.304   9.508 -0.2329  0.1501 -0.0618
 2740PP      PP12844   8.659   9.022   9.860 -0.2767 -0.2331  0.1334
 2741PP      PP12845   9.344  15.027  11.719 -0.1049  0.0194  0.1377
 2742PP      PP12846   4.786  12.203  11.452  0.1638  0.1688  0.3490
 2743PP      PP12847  10.351   5.429   9.520  0.0997  0.3215  0.1722
 2744PP      PP12848  10.988  12.022   4.223 -0.1388 -0.2758 -0.2581
 2745PP      PP12849   5.971  13.535   2.057 -0.2007 -0.2610 -0.0735
 2746PP      PP12850   4.067  10.212   8.796  0.1780 -0.0647  0.1907
 2747PP      PP12851   4.037   2.219   9.444 -0.3000 -0.0965  0.1086
 2748PP      PP12852   1.407   1.798   9.035  0.0820 -0.1987 -0.2080
 2749PP      PP12853  13.959   2.676   2.402  0.2387  0.0915 -0.2359
 2750PP      PP12854   7.586   6.125   9.886  0.2122  0.0115 -0.0198
 2751PP      PP12855  15.502   1.931   3.105  0.0074  0.3384  0.2146
 2752PP      PP12856  14.668  12.673   0.309 -0.2005 -0.2134 -0.4734
 2753PP      PP12857   5.369   4.634   1.871 -0.2355  0.0569  0.0319
 2754PP      PP12858   9.568   7.560   1.429  0.0841 -0.2638  0.3861
 2755PP      PP12859   3.786   5.571   8.972 -0.0976 -0.4108 -0.2557
 2756PP      PP12860  10.597   3.836   1.177 -0.2328 -0.1919  0.1887
 2757PP      PP12861   1.460   7.854   2.989  0.4184 -0.0423 -0.0220
 2758PP      PP12862   9.365   8.059  10.686 -0.1206  0.1424  0.0577
 2759PP      PP12863  15.079  12.185  12.775  0.1127 -0.1692  0.1285
 2760PP      PP12864   9.674   7.481  10.045  0.0475 -0.2743  0.0023
 2761PP      PP12865   8.573   1.403   1.245 -0.1209  0.0479  0.0739
 2762PP      PP12866   4.867  11.870   9.197 -0.0057  0.1581 -0.4717
 2763PP      PP12867   8.146   3.939   2.152  0.0317  0.1745  0.1065
 2764PP      PP12868   6.048  14.209   3.840  0.0667  0.1103  0.0469
 2765PP      PP12869   8.442  13.163   3.457  0.0188 -0.0143  0.1528
 2766PP      PP12870   8.666   7.911   1.323 -0.0472  0.0231 -0.4107
 2767PP      PP12871   2.008   2.415  12.505  0.2463 -0.3615  0.0180
 2768PP      PP12872   8.454  13.747   9.557  0.1937  0.3625  0.0240
 2769PP      PP12873   3.693   5.832  11.045  0.1750 -0.1112  0.1797
 2770PP      PP12874   5.814   1.148  13.422  0.1368 -0.0961  0.0973
 2771PP      PP12875   7.583   6.307  11.416  0.4282  0.2463 -0.0330
 2772PP      PP12876   6.694  10.029  13.063 -0.1962 -0.0418 -0.1759
 2773PP      PP12877  14.196   1.088   1.302 -0.0198  0.0432  0.0715
 2774PP      PP12878  13.436   8.306   3.207 -0.0011  0.0869 -0.2197
 2775PP      PP12879   8.601  13.056  10.377 -0.1941  0.0950 -0.0645
 2776PP      PP12880   4.236   0.091  10.978 -0.0588  0.1451  0.2615
 2777PP      PP12881  10.598   7.806   0.697 -0.4441 -0.0223  0.0877
 2778PP      PP12882   9.474   9.169   2.840 -0.1311  0.1859  0.0580
 2779PP      PP12883   4.327  11.433  10.361  0.3058  0.1628 -0.0888
 2780PP      PP12884   7.441   4.108   0.841 -0.3034  0.0240  0.0752
 2781PP      PP12885  12.495  11.344  12.249 -0.1805  0.1392 -0.0416
 2782PP      PP12886   4.432  15.380   2.169 -0.0846  0.0474  0.2224
 2783PP      PP12887   2.035   0.778   2.295 -0.0229 -0.4355  0.2176
 2784PP      PP12888   0.107  13.973  10.924 -0.0449  0.0873 -0.1514
 2785PP      PP12889   4.062   6.710   9.794  0.2770 -0.3227  0.2934
 2786PP      PP12890  13.066   3.201   1.055  0.0513 -0.0572 -0.2276
 2787PP      PP12891  11.172  10.880  11.874  0.3160  0.1287  0.1073
 2788PP      PP12892   5.854  13.353  10.325 -0.0805 -0.0199  0.0613
 2789PP      PP12893  14.771   5.436  10.638  0.0791  0.0490  0.0152
 2790PP      PP12894   1.503   2.881   9.922  0.3730  0.2068  0.2991
 2791PP      PP12895   5.908   1.620   9.116 -0.0830 -0.2993 -0.0755
 2792PP      PP12896   6.503  15.420   8.814  0.1382 -0.0453  0.3091
 2793PP      PP12897  10.065  12.599  12.802  0.2496 -0.1447  0.0266
 2794PP      PP12898  15.168   5.733   0.656 -0.1458  0.1460 -0.0367
 2795PP      PP12899  12.645  12.742  11.081  0.1749 -0.2304 -0.2493
 2796PP      PP12900   1.259   0.873   3.996 -0.0082  0.0073  0.1371
 2797PP      PP12901   7.457   5.666   3.300  0.1545  0.0261  0.2947
 2798PP      PP12902  15.129   3.509   0.088  0.0217  0.1264  0.3131
 2799PP      PP12903   9.715  13.404   3.632 -0.2087  0.0547 -0.3232
 2800PP      PP12904   3.244   9.317   4.239  0.3341  0.0526  0.3396
 2801PP      PP12905  14.048   2.330   9.656 -0.0395  0.3706  0.1036
 2802PP      PP12906   3.243   0.374   0.368 -0.2495  0.1047 -0.0671
 2803PP      PP12907   1.418   7.039  13.087 -0.0698  0.1060 -0.0501
 2804PP      PP12908  10.473   6.057   7.733  0.0952 -0.2280  0.0967
 2805PP      PP12909   9.546   1.093  10.420  0.0315 -0.3192 -0.0123
 2806PP      PP12910   1.401  13.995   3.357 -0.0893 -0.1314 -0.3704
 2807PP      PP12911  14.206  14.290   4.660 -0.3069 -0.0400  0.1566
 2808PP      PP12912   6.486   4.880  10.169  0.1755 -0.0297  0.0534
 2809PP      PP12913  13.799  11.896  12.998  0.0238  0.2193 -0.1853
 2810PP      PP12914  12.735  10.893   2.690  0.1489  0.0119 -0.0489
 2811PP      PP12915   8.785   6.293  12.256  0.0392  0.2723  0.0214
 2812PP      PP12916  14.998   1.382   0.799 -0.1054  0.3154 -0.1135
 2813PP      PP12917   3.321   1.270   1.579  0.1025 -0.0500 -0.0556
 2814PP      PP12918   1.934  10.003  13.247  0.1882 -0.0282 -0.1865
 2815PP      PP12919  14.347   9.655   1.100 -0.1088  0.3718  0.0095
 2816PP      PP12920  10.303  14.412  12.406 -0.1272 -0.3004 -0.0915
 2817PP      PP12921  13.626  11.225   9.526  0.0682  0.1441 -0.1458
 2818PP      PP12922   3.023   8.095   8.446 -0.0494  0.0580 -0.0948
 2819PP      PP12923  12.612  10.877  12.468  0.1378  0.3263 -0.0627
 2820PP      PP12924   8.550  12.287   3.657 -0.0549 -0.1751  0.0750
 2821PP      PP12925  11.046  10.266  13.384  0.0031 -0.0313  0.1336
 2822PP      PP12926   8.109   6.943   9.702  0.2645  0.2689 -0.0300
 2823PP      PP12927   6.798   0.557   8.315 -0.1009 -0.0543 -0.1192
 2824PP      PP12928   6.880   9.810   4.494  0.1166  0.2168 -0.0310
 2825PP      PP12929   4.296   7.300   0.702  0.0967  0.1674 -0.2637
 2826PP      PP12930   1.675   3.228  12.666  0.1201  0.2572 -0.3639
 2827PP      PP12931   6.819  13.140   0.132 -0.0152 -0.0986  0.0397
 2828PP      PP12932   8.255   7.744   1.752  0.1569 -0.1195 -0.0896
 2829PP      PP12933   4.656   1.225   3.247 -0.1489  0.1740  0.1299
 2830PP      PP12934  14.409   6.726   9.441  0.1220  0.1260  0.2034
 2831PP      PP12935   6.043   4.378   0.947 -0.0176 -0.1155 -0.3142
 2832PP      PP12936   6.074   7.581   2.829  0.0679  0.1288 -0.4518
 2833PP      PP12937  11.372   0.303  12.309 -0.2501 -0.0596 -0.0630
 2834PP      PP12938  15.200  14.230   1.789 -0.4134  0.0061  0.0137
 2835PP      PP12939  13.347  14.366   0.762  0.2306  0.1396 -0.1242
 2836PP      PP12940  11.568  13.421   0.624 -0.1726  0.0275 -0.2400
 2837PP      PP12941  12.632  10.414   2.442  0.0915 -0.1093  0.1741
 2838PP      PP12942   1.238   4.576   9.055  0.0485  0.0800 -0.1932
 2839PP      PP12943  12.077  15.549   2.210  0.0214  0.0283  0.1381
 2840PP      PP12944  14.608  12.869  12.935  0.2211  0.3440  0.0250
 2841PP      PP12945   6.952   7.059   4.281  0.1624 -0.1152  0.4643
 2842PP      PP12946   6.914   2.661   1.099  0.5382  0.2631  0.0896
 2843PP      PP12947  12.223   3.996   1.249  0.2384 -0.1149  0.1537
 2844PP      PP12948   3.202  15.004  11.647 -0.1010 -0.1189  0.1638
 2845PP      PP12949   8.233  10.246   1.263  0.1204 -0.0782 -0.0317
 2846PP      PP12950  12.169  10.569   2.235  0.5552 -0.3692  0.3297
 2847PP      PP12951   1.680  13.406  10.998 -0.0492  0.2180 -0.0286
 2848PP      PP12952   7.833   0.194   9.210  0.1432  0.0073  0.0072
 2849PP      PP12953   8.542   2.879   3.558 -0.0729  0.1324  0.1585
 2850PP      PP12954  10.450   1.177   4.975 -0.0126 -0.0230  0.0581
 2851PP      PP12955   3.946  15.613   4.156 -0.2643 -0.3999  0.3971
 2852PP      PP12956   0.754   7.371   0.267  0.4313  0.0872 -0.2668
 2853PP      PP12957   0.873  12.967  11.752  0.0751 -0.0586 -0.1705
 2854PP      PP12958   0.905   0.212   1.785 -0.2485  0.2841 -0.2712
 2855PP      PP12959   4.569   2.215  10.185  0.1494  0.0760 -0.0693
 2856PP      PP12960   0.436   9.740  11.336  0.1441  0.1877  0.1133
 2857PP      PP12961   0.583   9.996   0.187  0.0038 -0.0354 -0.1359
 2858PP      PP12962  15.847   8.046   1.219  0.3221 -0.1108 -0.1732
 2859PP      PP12963   1.847   7.829  11.308  0.3121  0.0878  0.0720
 2860PP      PP12964   5.471   8.405  13.159  0.0228  0.2056 -0.0370
 2861PP      PP12965   7.639  14.002   5.165  0.1907  0.1197 -0.0709
 2862PP      PP12966  13.558   1.923   9.258  0.0634  0.1066  0.0580
 2863PP      PP12967   9.384   2.741   9.878  0.1536  0.2385 -0.0135
 2864PP      PP12968   4.870   1.627  10.547 -0.3171 -0.0000 -0.0348
 2865PP      PP12969   8.717   1.318   4.897 -0.1926  0.1374 -0.2958
 2866PP      PP12970   5.804   4.011   0.664  0.0847  0.2643  0.3221
 2867PP      PP12971  12.775   2.241   3.947  0.1440 -0.0074 -0.0002
 2868PP      PP12972   4.707  12.000   4.636  0.0225 -0.0306  0.0489
 2869PP      PP12973   9.692   8.866   0.223 -0.3356 -0.2289 -0.1140
 2870PP      PP12974   0.479   9.773   8.767  0.1622  0.0804 -0.3486
 2871PP      PP12975   6.752   3.579  12.517 -0.3653 -0.1771 -0.2681
 2872PP      PP12976   9.614  12.693   2.064 -0.2832 -0.0434 -0.0753
 2873PP      PP12977   4.957   9.743  13.539 -0.2869 -0.3380 -0.1643
 2874PP      PP12978   9.578  11.908   0.408 -0.1951  0.0920  0.2951
 2875PP      PP12979  13.088   4.662  10.318  0.1238 -0.0679 -0.3173
 2876PP      PP12980  10.404   8.278   3.168 -0.0743 -0.1128 -0.0180
 2877PP      PP12981  15.109  12.080  11.801 -0.1302  0.1386  0.1608
 2878PP      PP12982   4.710   9.676   2.147 -0.2673  0.0989  0.1990
 2879PP      PP12983   4.221  11.063   3.480 -0.2598  0.2346 -0.0033
 2880PP      PP12984  15.774   7.066  10.155  0.1432  0.0641  0.0820
 2881PP      PP12985   7.215  15.799   3.819  0.3178  0.0694  0.0244
 2882PP      PP12986   4.169   3.627   2.637 -0.3077 -0.2377 -0.0452
 2883PP      PP12987  12.858  13.347  12.126 -0.0975  0.0613 -0.0823
 2884PP      PP12988   8.760   8.734  11.969 -0.0397 -0.2698  0.2478
 2885PP      PP12989   9.800  11.146  10.808  0.2515  0.0814 -0.3889
 2886PP      PP12990   7.665  14.826   0.374 -0.0953 -0.2508  0.1920
 2887PP      PP12991   7.219  14.904   3.268 -0.0305  0.0603 -0.2224
 2888PP      PP12992   6.374   0.222   0.277 -0.0530  0.0780 -0.1385
 2889PP      PP12993   7.568   3.776   2.374  0.0641  0.0248  0.0629
 2890PP      PP12994   9.797  13.784  11.873  0.0179 -0.3528  0.2760
 2891PP      PP12995  11.971  14.019  10.920  0.2316  0.0289 -0.1729
 2892PP      PP12996  10.781  14.266  12.007 -0.1657 -0.2677  0.0997
 2893PP      PP12997   0.651   6.503   3.270  0.2821 -0.0386  0.0215
 2894PP      PP12998   0.009  13.359   4.331 -0.2900 -0.1117 -0.1577
 2895PP      PP12999   9.117  13.878   9.948  0.2084 -0.1888 -0.0312
 2896PP      PP13000   2.227  12.375  10.907  0.0186  0.2859  0.0548
 2897PP      PP13001  10.019   8.032   0.416 -0.1421 -0.1159 -0.1383
 2898PP      PP13002  12.792   9.524  13.461 -0.0837  0.0265  0.1638
 2899PP      PP13003  11.933  14.722   9.615  0.0569  0.1118 -0.0174
 2900PP      PP13004   7.469   1.814   1.083 -0.0965 -0.0980 -0.0409
 2901PP      PP13005  14.737  10.430   3.314 -0.1968  0.6799  0.1846
 2902PP      PP13006   7.464  15.427   3.332  0.1861 -0.1011 -0.1090
 2903PP      PP13007  12.642  10.005  13.154 -0.1349  0.2059 -0.2023
 2904PP      PP13008  13.783   1.872   0.859 -0.2657 -0.2455  0.1432
 2905PP      PP13009  10.502  14.990   2.871  0.0314 -0.1879  0.0468
 2906PP      PP13010  11.306   7.845   0.061 -0.2386 -0.1248  0.0601
 2907PP      PP13011   6.168  10.752   3.696 -0.0164 -0.1140  0.2478
 2908PP      PP13012   5.337  13.838   2.907 -0.0683 -0.2823 -0.2986
 2909PP      PP13013   6.820  14.235   0.596 -0.0099 -0.1267 -0.1752
 2910PP      PP13014   3.440   4.744   1.563 -0.2202 -0.0005 -0.1948
 2911PP      PP13015  13.228   5.120  11.519  0.1957  0.3642 -0.0919
 2912PP      PP13016  15.252   4.660   2.323  0.1334 -0.0244  0.0869
 2913PP      PP13017   0.790   0.249   1.204 -0.0245  0.1605  0.3254
 2914PP      PP13018  11.195  12.201   1.652 -0.0483  0.0149  0.2173
 2915PP      PP13019  13.431   4.286   9.846 -0.0714 -0.4421  0.3472
 2916PP      PP13020   6.164   7.248  12.979  0.1235  0.1559 -0.0611
 2917PP      PP13021   7.522   3.923   1.815  0.1752 -0.0010 -0.0830
 2918PP      PP13022  11.556  14.589  10.042  0.1954 -0.0170 -0.0653
 2919PP      PP13023  10.065   7.615  12.677  0.1190 -0.2707 -0.3352
 2920PP      PP13024   7.839   0.452   2.234  0.1047 -0.1371  0.3860
 2921PP      PP13025   1.182   7.505  12.407  0.0069 -0.3507  0.0517
 2922PP      PP13026  10.703   1.269   3.059 -0.0112 -0.2204  0.1096
 2923PP      PP13027  15.587   0.051  10.738 -0.1663 -0.1821 -0.1475
 2924PP      PP13028  12.940   5.338   2.302  0.1747  0.0252  0.1380
 2925PP      PP13029  15.477  15.835   0.167  0.1408 -0.0132 -0.1501
 2926PP      PP13030   7.667  11.719  10.717  0.0602 -0.2447 -0.0423
 2927PP      PP13031   1.270   6.746  13.480  0.1734 -0.0777  0.1769
 2928PP      PP13032   4.928   7.271   0.514 -0.0824  0.2312  0.2222
 2929PP      PP13033  13.731   9.556   2.294 -0.0079 -0.0977  0.0003
 2930PP      PP13034  12.876   5.939   8.276 -0.0578 -0.0354  0.1804
 2931PP      PP13035  13.454  10.844  11.863 -0.0899 -0.1067 -0.1684
 2932PP      PP13036   9.382  13.820   2.344 -0.0979  0.2707 -0.0972
 2933PP      PP13037   7.218   3.016   0.678 -0.4261  0.0932  0.2498
 2934PP      PP13038  13.887   5.662  10.007 -0.2545  0.1119  0.1904
 2935PP      PP13039   5.174   9.383   2.252 -0.0653 -0.1395 -0.2538
 2936PP      PP13040  12.605  14.459   0.399 -0.2702  0.0154 -0.2528
 2937PP      PP13041   7.109   5.143   2.704 -0.1673 -0.0608  0.0981
 2938PP      PP13042   7.508  10.180  11.146  0.0160  0.0733 -0.0142
 2939PP      PP13043   3.935   3.344   2.113  0.1701  0.0786  0.1280
 2940PP      PP13044  12.626   6.785  13.154 -0.1499  0.0071 -0.0811
 2941PP      PP13045   7.786   9.740  10.974  0.0203  0.0868 -0.0120
 2942PP      PP13046   7.401  15.035  12.995  0.1975 -0.2799  0.2092
 2943PP      PP13047   5.181   4.141   3.595 -0.1187 -0.0036  0.2599
 2944PP      PP13048   6.430  14.682   2.721 -0.2256 -0.0243  0.1382
 2945PP      PP13049   4.628   8.226  12.702  0.0374  0.0379  0.0573
 2946PP      PP13050  15.337   4.735   4.203 -0.1683  0.0341  0.1045
 2947PP      PP13051   9.658   7.259   8.373 -0.1305 -0.0008 -0.0521
 2948PP      PP13052   3.855   9.974   9.285  0.0861 -0.0226  0.0293
 2949PP      PP13053   0.329  15.675  12.364  0.2183 -0.0649 -0.1314
 2950PP      PP13054   6.976   6.660   9.363  0.1106 -0.2074  0.2286
 2951PP      PP13055  14.151   7.147   9.612 -0.2518  0.2261 -0.1282
 2952PP      PP13056  13.446   7.538  11.244  0.0143  0.3329  0.0775
 2953PP      PP13057  12.470   7.969   0.952 -0.0333 -0.0535  0.2109
 2954PP      PP13058  10.829   1.587   2.646  0.1049 -0.0266 -0.0446
 2955PP      PP13059  12.357  12.541   1.527  0.1129  0.0475 -0.0019
 2956PP      PP13060  14.634  11.899  11.787 -0.0736 -0.1245  0.1675
 2957PP      PP13061  13.287   3.446  11.506 -0.3940 -0.0664 -0.0379
 2958PP      PP13062   2.668   8.739   3.088  0.3038 -0.2749  0.0128
 2959PP      PP13063  11.053   2.327   3.705  0.2048 -0.1012  0.0784
 2960PP      PP13064   3.179   2.925   0.090  0.0101 -0.0715 -0.3298
 2961PP      PP13065   0.817   8.540   2.671 -0.2369 -0.3251 -0.2196
 2962PP      PP13066  14.321   6.705  12.747 -0.2678  0.1153 -0.2678
 2963PP      PP13067   5.829   4.256   9.799 -0.0808  0.0006  0.2313
 2964PP      PP13068   3.170   3.813   3.936 -0.0936  0.1521  0.1658
 2965PP      PP13069   5.086   6.069   1.202 -0.1598 -0.1767  0.2925
 2966PP      PP13070  13.424  15.117   0.907 -0.0076 -0.1832  0.1033
 2967PP      PP13071  11.203  11.785   1.263  0.0965  0.3383  0.0781
 2968PP      PP13072   2.762   6.898   4.298  0.0511 -0.3953 -0.0791
 2969PP      PP13073  11.667  15.219   0.750  0.2579 -0.1023  0.0605
 2970PP      PP13074   0.669   1.713   3.839 -0.0535 -0.0383  0.0170
 2971PP      PP13075   1.609  14.750  13.234  0.2665  0.1077  0.0603
 2972PP      PP13076   7.562  11.877   0.269  0.0200  0.1986 -0.2591
 2973PP      PP13077  14.770   3.540   9.901 -0.0149 -0.0197  0.3333
 2974PP      PP13078   1.130   1.198  11.192 -0.0647  0.5282  0.2830
 2975PP      PP13079  13.204  13.513  11.175  0.3503  0.1631 -0.0957
 2976PP      PP13080   9.356   8.830   4.120  0.0798  0.0881  0.1322
 2977PP      PP13081  11.119   0.483  11.044 -0.1088  0.2977 -0.0761
 2978PP      PP13082   2.815   6.358   8.512 -0.1495  0.1644 -0.1461
 2979PP      PP13083   8.655   0.758   2.120  0.1826  0.1979  0.0143
 2980PP      PP13084  11.013   4.937   9.291  0.0776 -0.3403 -0.1518
 2981PP      PP13085   4.139  14.313   0.195 -0.0274 -0.0050  0.0782
 2982PP      PP13086  15.493  14.097   9.382  0.0421 -0.0556  0.0286
 2983PP      PP13087   6.528   9.318   3.600  0.1843  0.0908 -0.0244
 2984PP      PP13088   3.663   3.825   1.843  0.0713  0.0312 -0.1160
 2985PP      PP13089   7.764  15.839   9.638 -0.3316 -0.0649  0.0058
 2986PP      PP13090  10.555  13.331  11.400 -0.0797  0.4192 -0.0746
 2987PP      PP13091   3.937  12.332  12.682 -0.0830 -0.2811  0.1479
 2988PP      PP13092   4.086  11.439   4.112  0.0753  0.2048  0.3264
 2989PP      PP13093   7.436   5.999   2.888  0.2568 -0.0554 -0.2363
 2990PP      PP13094   7.944   9.473  12.661 -0.0623 -0.1596  0.0851
 2991PP      PP13095  15.435  11.615   1.230 -0.1119 -0.2823 -0.2391
 2992PP      PP13096   7.616   4.622  13.367 -0.2216 -0.0401  0.0881
 2993PP      PP13097   8.464  14.575   3.163  0.0100 -0.1073  0.0044
 2994PP      PP13098  10.003  11.397   2.791  0.0477 -0.0193  0.0258
 2995PP      PP13099   6.873  14.117   9.494 -0.1617  0.0627  0.1950
 2996PP      PP13100   1.509  15.765   3.138 -0.2485 -0.0287 -0.0283
 2997PP      PP13101   5.755   7.996  13.283 -0.1105  0.3561 -0.4382
 2998PP      PP13102   7.547   3.607   4.284 -0.1169  0.0558 -0.0137
 2999PP      PP13103   5.404  12.919   1.969  0.2292  0.2394  0.2133
 3000PP      PP13104  11.444   5.398   1.481  0.4594  0.0061 -0.1228
 3001PP      PP13105  12.150   0.257  10.369  0.2595 -0.2168 -0.1719
 3002PP      PP13106   5.694   3.110  11.878 -0.0145  0.1965 -0.0872
 3003PP      PP13107   6.503  14.325   3.828  0.0242  0.0854 -0.0569
 3004PP      PP13108  14.553  14.549   1.376 -0.0444  0.2190  0.4032
 3005PP      PP13109   8.165   8.427  12.660 -0.0457  0.0867  0.0595
 3006PP      PP13110  15.243   0.337   3.896  0.0108  0.0316  0.1599
 3007PP      PP13111  12.317   9.223  13.137 -0.1971  0.0854 -0.0776
 3008PP      PP13112   4.642   4.882   4.327 -0.0137 -0.0163 -0.2833
 3009PP      PP13113   5.113   4.219   0.947  0.0810 -0.1995 -0.3194
 3010PP      PP13114   5.517   3.239   0.855  0.2600  0.1286 -0.1486
 3011PP      PP13115   1.084   2.889   2.071 -0.0438 -0.1544  0.1932
 3012PP      PP13116  10.609   9.674   2.411  0.0869  0.1260  0.2655
 3013PP      PP13117   4.360   8.528   1.064  0.1091 -0.0627  0.2487
 3014PP      PP13118  10.556  13.818   3.076  0.2649 -0.0605  0.0258
 3015PP      PP13119  10.499   1.473  11.673  0.0648 -0.1456  0.2821
 3016PP      PP13120  12.239  15.264  10.199  0.0753 -0.0126  0.1226
 3017PP      PP13121   8.594  10.058  11.173 -0.2428  0.4267  0.1409
 3018PP      PP13122  15.225   7.288   8.329  0.1170  0.0075 -0.3605
 3019PP      PP13123   9.283   0.070   3.333  0.0782  0.0883 -0.0529
 3020PP      PP13124  13.774  12.379   8.848  0.0344 -0.2860  0.0361
 3021PP      PP13125   6.196  10.199  13.408  0.3802  0.5194  0.1026
 3022PP      PP13126   1.426   6.372   4.110 -0.0778 -0.2949 -0.1230
 3023PP      PP13127   2.218   0.236  12.138  0.1651 -0.0822 -0.1007
 3024PP      PP13128  10.961   8.224   3.311  0.0831 -0.3218 -0.2287
 3025PP      PP13129  12.945   4.388  12.708  0.1508 -0.0439  0.1313
 3026PP      PP13130   9.792   2.576  10.309 -0.0996  0.0098 -0.0949
 3027PP      PP13131   1.137  13.504  10.265 -0.2797 -0.0352 -0.0216
 3028PP      PP13132   7.841  14.046   3.559 -0.1493 -0.2195 -0.0983
 3029PP      PP13133   0.948   5.981   1.786  0.0276 -0.0972 -0.1063
 3030PP      PP13134   2.680  14.887   2.417  0.1088  0.0311  0.4140
 3031PP      PP13135   9.316   2.317  13.079 -0.2658  0.3532  0.1764
 3032PP      PP13136   6.870   3.127  12.774 -0.0037 -0.1287 -0.0647
 3033PP      PP13137  13.552   9.330  13.453 -0.2235  0.0130 -0.0601
 3034PP      PP13138   7.806   1.375  13.451  0.1285  0.0342  0.1668
 3035PP      PP13139   9.668   5.377   2.955 -0.0365 -0.1485 -0.3012
 3036PP      PP13140   7.989   0.239  11.263 -0.0626  0.0463 -0.0577
 3037PP      PP13141   9.474   7.353  11.837  0.1489  0.0207  0.0303
 3038PP      PP13142   2.637   7.898  10.135 -0.0962 -0.1873 -0.0034
 3039PP      PP13143   9.250  14.125   4.267 -0.1068  0.1764 -0.1674
 3040PP      PP13144   0.562  15.735   9.025  0.1305  0.2641  0.0171
 3041PP      PP13145   8.493   0.711   4.273  0.0751 -0.2995 -0.1005
 3042PP      PP13146   5.193   4.821  10.176  0.0166  0.0513  0.5471
 3043PP      PP13147   9.504   6.660   0.417  0.2431 -0.1955 -0.0452
 3044PP      PP13148   5.756   8.559  10.525 -0.0809 -0.1808  0.0974
 3045PP      PP13149  14.106  13.477  13.260  0.2560  0.0697 -0.3323
 3046PP      PP13150   0.987  11.119  10.942  0.0890 -0.0826  0.1468
 3047PP      PP13151   0.975   1.658  13.392  0.0560 -0.2382 -0.1434
 3048PP      PP13152   0.403   1.537  13.539 -0.1707 -0.2577 -0.0469
 3049PP      PP13153   4.549  15.638   9.867 -0.4263 -0.1389 -0.2574
 3050PP      PP13154   0.829   0.970  12.441  0.1578 -0.3840 -0.0272
 3051PP      PP13155   8.686   3.437  10.046 -0.0961 -0.0002 -0.2942
 3052PP      PP13156  14.393  14.284  11.086  0.1023 -0.1622 -0.0425
 3053PP      PP13157  14.411  14.321  12.909 -0.0240  0.0669  0.0650
 3054PP      PP13158   8.801   4.028  12.473  0.1131  0.0270  0.1779
 3055PP      PP13159   8.385  12.640  11.678  0.3261  0.2065  0.1396
 3056PP      PP13160  13.732  15.872   1.471 -0.1427 -0.0596 -0.1935
 3057PP      PP13161   0.558  10.880  11.883 -0.0027  0.1364  0.0863
 3058PP      PP13162  14.104  10.244   0.065  0.1783 -0.2846  0.0833
 3059PP      PP13163  11.642   3.782   1.653  0.0537  0.2014  0.0357
 3060PP      PP13164  13.936   6.237  10.027 -0.1060  0.2669 -0.0335
 3061PP      PP13165   1.137   1.371   2.019  0.1479 -0.2365  0.1105
 3062PP      PP13166  11.013   8.009   8.395 -0.2226  0.0894 -0.1586
 3063PP      PP13167   8.866  13.833  13.023 -0.1188 -0.0942 -0.0379
 3064PP      PP13168   5.013   1.655   2.186  0.1757 -0.1799 -0.3218
 3065PP      PP13169   0.320   6.924  10.358 -0.4265  0.2199  0.1246
 3066PP      PP13170  14.992   2.026   2.623  0.1055  0.1094  0.1183
 3067PP      PP13171  14.173  11.692   2.427  0.0937  0.0257  0.1934
 3068PP      PP13172   0.890   8.271  11.370  0.4310  0.1428  0.1898
 3069PP      PP13173   8.511  11.668   2.997  0.0201 -0.0715  0.2138
 3070PP      PP13174   2.882  12.601   2.419  0.0109  0.0513  0.0470
 3071PP      PP13175   7.713   5.925  12.292 -0.0160 -0.0836 -0.0683
 3072PP      PP13176   4.470  12.487   0.240 -0.2036  0.1605 -0.0464
 3073PP      PP13177   8.823   8.009   9.636 -0.0470  0.0527  0.0774
 3074PP      PP13178   5.954  10.979   2.738 -0.4706  0.2589 -0.2575
 3075PP      PP13179   6.794  11.541  10.163  0.0875 -0.0642 -0.0130
 3076PP      PP13180   7.301   9.673   4.060  0.1213  0.0491 -0.1330
 3077PP      PP13181   9.986   3.156   1.583 -0.2108  0.0540 -0.1803
 3078PP      PP13182   2.590  12.192  10.565 -0.0749  0.0140  0.1346
 3079PP      PP13183   5.708   8.803   2.845  0.1494  0.0014 -0.1647
 3080PP      PP13184   8.641   8.884  12.644  0.0311  0.0792  0.1259
 3081PP      PP13185   6.124   3.000  12.940  0.2053  0.2489  0.1220
 3082PP      PP13186  12.272   0.461   3.892 -0.3370  0.0542  0.0016
 3083PP      PP13187  13.334  13.062   4.920  0.0278 -0.0652 -0.0248
 3084PP      PP13188   1.260   7.824  12.015  0.0052 -0.0932 -0.2078
 3085PP      PP13189   4.171   1.145   0.018  0.0535  0.0919 -0.0331
 3086PP      PP13190  10.321   8.047   1.658  0.1318 -0.0673 -0.1181
 3087PP      PP13191   6.602   2.640  10.597 -0.1734  0.4959 -0.2753
 3088PP      PP13192  15.388   3.184  13.243  0.1885  0.3739  0.2386
 3089PP      PP13193  13.307   9.412   2.496 -0.1155  0.1025 -0.0074
 3090PP      PP13194   1.011   9.527  13.340  0.1145 -0.1093  0.1516
 3091PP      PP13195   2.793   9.788  10.281  0.0095 -0.1782 -0.1980
 3092PP      PP13196   6.398   8.794  11.165  0.1558  0.1008 -0.0585
 3093PP      PP13197  15.554  14.607   1.400  0.1484 -0.2314  0.0910
 3094PP      PP13198  13.061  15.297   0.560 -0.0231 -0.0206 -0.0181
 3095PP      PP13199   5.479  15.340   2.098  0.0745 -0.0586  0.0803
 3096PP      PP13200   9.879   2.372  10.763  0.0399  0.0207 -0.1656
 3097PP      PP13201  12.376   7.068   1.249 -0.5766 -0.1922  0.5309
 3098PP      PP13202   7.696   4.835  12.825  0.1106 -0.0504 -0.3940
 3099PP      PP13203   6.334   6.247   2.564 -0.1213  0.2257 -0.2082
 3100PP      PP13204   7.650  10.607   1.541  0.0723  0.2624  0.0863
 3101PP      PP13205  13.553   5.488  12.829  0.0014 -0.1583 -0.0092
 3102PP      PP13206   2.537   7.892   1.765 -0.2632  0.0449 -0.2224
 3103PP      PP13207   2.923   8.858  10.415  0.0365  0.3573 -0.1506
 3104PP      PP13208  11.947   5.660  10.343 -0.1086 -0.2298  0.0738
 3105PP      PP13209  15.458  10.567  11.817  0.0620  0.0780 -0.1206
 3106PP      PP13210   8.402   8.185   0.982 -0.2654  0.1499  0.0857
 3107PP      PP13211   6.684  11.724   4.049  0.2166 -0.0976 -0.1695
 3108PP      PP13212  12.608   0.087   4.089 -0.0797  0.1805  0.0622
 3109PP      PP13213   0.785   6.528  13.531  0.0129  0.3123 -0.2032
 3110PP      PP13214  10.423  10.644  10.016  0.1396  0.2955 -0.0887
 3111PP      PP13215   7.100  13.169   4.150  0.3959 -0.1539  0.0641
 3112PP      PP13216   7.398  14.849   3.795  0.0832  0.0174  0.0970
 3113PP      PP13217  15.877  12.806   3.787 -0.1103 -0.1030 -0.0082
 3114PP      PP13218   4.795   5.424   3.599 -0.1384  0.2389  0.1125
 3115PP      PP13219  14.529  10.212   0.347  0.0422  0.0946  0.0621
 3116PP      PP13220  13.509   7.691  13.411  0.1249 -0.1115  0.3230
 3117PP      PP13221   1.754  10.529  13.362 -0.0456  0.0119  0.1312
 3118PP      PP13222  14.316   1.572  12.512 -0.1922  0.0332 -0.2444
 3119PP      PP13223   5.112   0.361  11.058 -0.1405  0.2035 -0.0212
 3120PP      PP13224   3.615   3.105   0.031 -0.2662  0.0495 -0.4495
 3121PP      PP13225  11.989  14.767  10.245 -0.2411 -0.0053  0.0687
 3122PP      PP13226  15.163   1.131   3.224 -0.3580 -0.1779  0.2987
 3123PP      PP13227  15.176   4.635  12.614  0.2165  0.1903  0.0554
 3124PP      PP13228   4.185  11.824   2.874 -0.1829 -0.1043 -0.2894
 3125PP      PP13229   2.923   5.277   2.173 -0.0565  0.1417 -0.0133
 3126PP      PP13230  14.315   6.660   2.365  0.3167  0.1668 -0.2533
 3127PP      PP13231   7.211   7.876   4.485 -0.0186 -0.0219  0.2181
 3128PP      PP13232   0.072   5.849  10.480 -0.3263  0.0041 -0.0343
 3129PP      PP13233  12.817   6.169   3.695  0.0122  0.0767  0.0670
 3130PP      PP13234   7.024  15.576   3.272  0.0810  0.0927  0.0079
 3131PP      PP13235   3.121   8.894  11.754 -0.2826 -0.0133  0.0219
 3132PP      PP13236  13.373   4.614  12.918  0.0635 -0.0078 -0.2709
 3133PP      PP13237  11.175   2.551   1.077 -0.1072 -0.0138  0.1104
 3134PP      PP13238   0.031  10.672  10.836  0.0690 -0.0086 -0.0160
 3135PP      PP13239  11.673   2.386   3.132  0.0856  0.0780 -0.1328
 3136PP      PP13240   1.916  12.135   1.171  0.3434  0.0654  0.0425
 3137PP      PP13241  14.290  12.895  11.327 -0.0462 -0.1053  0.0698
 3138PP      PP13242   5.279   6.976  13.122  0.1721  0.1088 -0.1486
 3139PP      PP13243   0.845  14.424  10.936 -0.1196  0.1983  0.0942
 3140PP      PP13244   6.891   1.534  10.992 -0.1339 -0.5122  0.0674
 3141PP      PP13245   5.168   0.670   4.016 -0.1583 -0.1621 -0.4754
 3142PP      PP13246  13.732  10.986   3.876 -0.0581  0.0255 -0.1297
 3143PP      PP13247   5.607  14.880   9.855  0.1606  0.1044  0.0294
 3144PP      PP13248   8.403   6.580   1.510  0.1168  0.4074  0.0730
 3145PP      PP13249   4.235  12.411   3.727 -0.1592  0.3133 -0.0242
 3146PP      PP13250   7.407   4.215   3.267  0.1372 -0.1228 -0.4132
 3147PP      PP13251  13.389  14.300  11.276 -0.0444 -0.0371 -0.1666
 3148PP      PP13252   3.724  15.074   4.236 -0.1779 -0.3159 -0.0834
 3149PP      PP13253  14.569  12.945   1.909  0.0330 -0.0943  0.5419
 3150PP      PP13254   9.545   0.598   3.664 -0.0471 -0.0258  0.1591
 3151PP      PP13255  12.618  12.874   9.327 -0.2334 -0.0711  0.2265
 3152PP      PP13256   6.162   7.694   3.648  0.0016 -0.1319 -0.0119
 3153PP      PP13257   6.596   7.445  10.420 -0.1368  0.3423 -0.1634
 3154PP      PP13258  13.689  11.378   3.593 -0.1057  0.2792  0.0901
 3155PP      PP13259  14.288  14.777   3.891 -0.2051  0.0630  0.0050
 3156PP      PP13260   0.136   6.572   4.083 -0.0520 -0.3958  0.0675
 3157PP      PP13261   1.006   7.769  12.825 -0.1138 -0.0029  0.3227
 3158PP      PP13262  15.841  13.973  12.310 -0.0804 -0.0773 -0.1658
 3159PP      PP13263  10.068   3.695   0.749  0.3723  0.2627  0.0141
 3160PP      PP13264  15.033   8.330  11.642 -0.0906 -0.0100  0.1089
 3161PP      PP13265  12.995   2.584   2.818 -0.1870  0.0375  0.5143
 3162PP      PP13266  13.548  15.869  12.690 -0.0690  0.1666 -0.0881
 3163PP      PP13267   0.063  11.424  12.357 -0.1601 -0.1017  0.3229
 3164PP      PP13268   1.997  15.109   3.796  0.0499  0.2363 -0.0930
 3165PP      PP13269  11.509   6.439   9.800 -0.2122 -0.2101  0.0276
 3166PP      PP13270  13.197  11.166   3.629 -0.0386 -0.1128 -0.2101
 3167PP      PP13271   8.999  10.939   2.853  0.1601 -0.0866 -0.0852
 3168PP      PP13272   1.193   5.119   3.566  0.1672 -0.0115 -0.2740
 3169PP      PP13273   0.721   1.431  11.417 -0.2404  0.4174 -0.0362
 3170PP      PP13274   9.860   4.208  11.482  0.2315  0.0008  0.0330
 3171PP      PP13275   5.682   0.944   2.588  0.1872  0.1847 -0.0501
 3172PP      PP13276  12.093  14.341   8.913 -0.0849 -0.0265  0.1383
 3173PP      PP13277   9.767   4.400   9.708  0.1000  0.3184  0.0515
 3174PP      PP13278   9.243   7.448   2.299 -0.2751 -0.5579  0.6652
 3175PP      PP13279  11.203   3.730   1.921  0.2414  0.1632 -0.1938
 3176PP      PP13280   5.635   4.985  13.357 -0.1956 -0.0500 -0.2143
 3177PP      PP13281   1.453  13.164   9.108  0.2963 -0.2555  0.1951
 3178PP      PP13282   0.500  15.329  12.961  0.0914 -0.2700 -0.1107
 3179PP      PP13283   4.515   0.627   1.737 -0.1056 -0.0902  0.3818
 3180PP      PP13284   4.132   2.518   9.802 -0.2709 -0.1221  0.1186
 3181PP      PP13285   9.652  14.041   3.972 -0.2598  0.0170  0.0552
 3182PP      PP13286   0.409   4.584  12.976  0.0057  0.0475 -0.2441
 3183PP      PP13287   4.252   1.411   0.862  0.2397  0.2685  0.2767
 3184PP      PP13288  11.629   0.076   4.829  0.2397  0.0567 -0.2509
 3185PP      PP13289   7.023  12.623  11.013  0.3134 -0.1696  0.0171
 3186PP      PP13290  12.815  11.488   9.630 -0.3203 -0.0608 -0.2197
 3187PP      PP13291  11.746  11.376   3.209 -0.1999  0.3725 -0.0573
 3188PP      PP13292   7.198   3.776   1.098  0.0898 -0.1967  0.0308
 3189PP      PP13293   3.694  15.622  13.359 -0.3400  0.2503 -0.0659
 3190PP      PP13294   4.301   8.415   9.536  0.0827 -0.0923 -0.0080
 3191PP      PP13295   6.325   2.586   0.477 -0.0639  0.0941  0.4816
 3192PP      PP13296  10.030   8.514  13.350 -0.1810  0.0958  0.0446
 3193PP      PP13297  10.080   4.995   3.666 -0.2275 -0.0178 -0.0774
 3194PP      PP13298   7.050  13.705  11.390 -0.1787 -0.1441  0.1468
 3195PP      PP13299   0.713  10.017   2.408  0.3241  0.3275  0.1627
 3196PP      PP13300  11.726  15.752  12.525 -0.0215 -0.1042  0.0471
 3197PP      PP13301   5.699  15.847   2.315  0.0411  0.0165 -0.1441
 3198PP      PP13302   5.646   6.586   3.547  0.1356 -0.1504 -0.2588
 3199PP      PP13303   7.055  15.703  11.924 -0.2148  0.1711  0.1624
 3200PP      PP13304   9.771   3.312   4.161  0.1384  0.0351 -0.0509
 3201PP      PP13305   4.672   8.163   0.577  0.1986 -0.0791 -0.0163
 3202PP      PP13306   4.921   0.976   8.936  0.0937  0.2973 -0.3332
 3203PP      PP13307   3.780  14.798  12.760  0.2481 -0.2236  0.1991
 3204PP      PP13308  11.742   1.849  11.772 -0.0009 -0.1801  0.1191
 3205PP      PP13309   3.632   3.599   9.302  0.0697 -0.2319 -0.1412
 3206PP      PP13310  12.015  14.866  13.033  0.1164  0.1182 -0.0247
 3207PP      PP13311   9.218   9.855  10.300 -0.1729  0.0607  0.0461
 3208PP      PP13312   3.348  13.069  13.074 -0.1160  0.1938  0.3743
 3209PP      PP13313  13.868   6.424   0.643  0.2616  0.2802 -0.0689
 3210PP      PP13314   6.163  10.987  11.568  0.1764  0.4469 -0.2434
 3211PP      PP13315   7.491  13.571   4.258  0.0498 -0.0482 -0.2565
 3212PP      PP13316   0.482  14.481   2.582 -0.0408  0.0299 -0.2048
 3213PP      PP13317   1.300   6.084   2.075 -0.0200 -0.0762  0.1832
 3214PP      PP13318   5.923  11.197  12.601 -0.1711 -0.1453  0.0028
 3215PP      PP13319   3.633   4.409   0.616 -0.0615  0.0791 -0.0384
 3216PP      PP13320   5.131  15.306   3.279  0.1575  0.2484 -0.2540
 3217PP      PP13321  14.959   0.394   3.091 -0.0482 -0.0974 -0.1932
 3218PP      PP13322   6.856   5.586  12.608  0.0075 -0.0352 -0.0021
 3219PP      PP13323  11.985  14.267   9.952 -0.3166 -0.0359 -0.4061
 3220PP      PP13324  14.862  10.600   4.119 -0.0290  0.0029  0.2634
 3221PP      PP13325  12.066   0.449   9.907 -0.2570  0.2950  0.1272
 3222PP      PP13326   5.842   7.845   4.332  0.1973  0.3475  0.1219
 3223PP      PP13327   9.954   3.554  11.552  0.0347 -0.3339  0.0240
 3224PP      PP13328  10.171  12.258   4.830 -0.0381  0.1905 -0.4110
 3225PP      PP13329  14.508  13.252   0.389 -0.3495  0.1875  0.1783
 3226PP      PP13330  10.167   1.825   1.302 -0.0035 -0.0357  0.1547
 3227PP      PP13331   8.843   0.688  13.267  0.3906 -0.1463  0.3171
 3228PP      PP13332   6.881  14.150  10.884  0.1816 -0.0185 -0.1239
 3229PP      PP13333   6.394  15.739  10.212 -0.0137  0.0693  0.1008
 3230PP      PP13334   8.609  14.088   3.913 -0.2718  0.1665 -0.3091
 3231PP      PP13335   0.596  13.184   2.857 -0.1404 -0.1440 -0.0760
 3232PP      PP13336  15.797  12.849  12.144 -0.1070 -0.1180  0.0261
 3233PP      PP13337   7.124   1.255  12.253 -0.0314  0.0329  0.1575
 3234PP      PP13338   3.840   9.781  10.843  0.0552 -0.0925 -0.0277
 3235PP      PP13339  11.138  14.225   0.379 -0.1053 -0.3270 -0.2061
 3236PP      PP13340   5.740   7.473  12.484 -0.1243  0.0932  0.0833
 3237PP      PP13341   0.476  11.973   1.701  0.2769  0.0197 -0.3253
 3238PP      PP13342   8.417  12.007   2.038 -0.0036 -0.0622 -0.2558
 3239PP      PP13343   2.888   5.824   1.412 -0.0334  0.0270 -0.2332
 3240PP      PP13344   0.575  13.094   3.363 -0.1114  0.2473  0.3030
 3241PP      PP13345   3.996   4.963   2.595 -0.0995  0.0825  0.0346
 3242PP      PP13346   1.538   3.464  11.789 -0.0038 -0.0986  0.1905
 3243PP      PP13347   5.183   4.740  12.636 -0.1041 -0.0098  0.0269
 3244PP      PP13348   9.583   6.683   2.731  0.0969 -0.2067  0.1661
 3245PP      PP13349   5.402   3.884   1.345  0.1677  0.0604 -0.5025
 3246PP      PP13350  15.172  11.633   0.289 -0.1153  0.1901  0.0869
 3247PP      PP13351   4.127   8.546  11.490  0.1277  0.0206  0.1588
 3248PP      PP13352  12.949   2.127  12.355  0.0170 -0.5363  0.1032
 3249PP      PP13353  15.567  15.148  11.378 -0.3803 -0.2653 -0.0520
 3250PP      PP13354  11.620   6.526  11.017 -0.1981  0.1288  0.2216
 3251PP      PP13355  10.270   2.727   1.594  0.1105 -0.0239  0.1599
 3252PP      PP13356  15.764   5.722  13.137  0.0280 -0.1840 -0.0867
 3253PP      PP13357   6.219   6.309   8.895 -0.1537  0.0567  0.0524
 3254PP      PP13358  15.131   1.163   2.184 -0.0399  0.0234 -0.0027
 3255PP      PP13359  13.703   7.603  12.947 -0.2510  0.2334 -0.0076
 3256PP      PP13360  13.892   2.829   1.277  0.0113 -0.1286 -0.2329
 3257PP      PP13361   6.535   7.732   0.429 -0.0219 -0.2518  0.3843
 3258PP      PP13362   0.514   4.475  10.851 -0.2958  0.3131 -0.2126
 3259PP      PP13363   3.980   9.810   3.992 -0.1609  0.2070  0.0683
 3260PP      PP13364   0.178  14.510   8.480  0.0353  0.0405  0.0721
 3261PP      PP13365   3.619   2.213  12.546 -0.2216 -0.0907 -0.2737
 3262PP      PP13366  15.452   6.617   9.935  0.0469  0.1301 -0.0177
 3263PP      PP13367   6.529   4.173   2.670 -0.2012 -0.1233  0.0074
 3264PP      PP13368  14.784  10.171  11.833  0.0065  0.3841  0.1307
 3265PP      PP13369  14.800  13.214  11.566  0.0590 -0.2179  0.2095
 3266PP      PP13370   1.655   2.100  12.209 -0.0139  0.0761  0.0964
 3267PP      PP13371   1.269   1.100  12.140  0.0049  0.2238 -0.1713
 3268PP      PP13372  14.519  12.909  12.434 -0.6503 -0.0618  0.1186
 3269PP      PP13373   3.282  12.299   2.737 -0.3047 -0.0315 -0.1034
 3270PP      PP13374   8.280  15.085  13.274 -0.1451 -0.0411  0.0346
 3271PP      PP13375  14.178   9.033  10.410  0.1597 -0.0956 -0.0507
 3272PP      PP13376   9.825   6.605   8.838  0.2353 -0.0426 -0.2174
 3273PP      PP13377   6.761   6.542   2.512 -0.3512 -0.0326  0.1539
 3274PP      PP13378  10.205  13.350   2.258  0.1608 -0.0227  0.2215
 3275PP      PP13379   4.317   4.635  11.403  0.0091 -0.0837 -0.2025
 3276PP      PP13380  11.880  13.788  13.367 -0.1863  0.1040 -0.3667
 3277PP      PP13381  14.670   4.886   0.728  0.0354 -0.0360  0.0353
 3278PP      PP13382   9.727   3.067   9.141  0.0551  0.1781 -0.0711
 3279PP      PP13383   2.116   3.288  13.462 -0.0757  0.0529 -0.2863
 3280PP      PP13384  12.269   6.266   0.341 -0.0673  0.1785  0.0543
 3281PP      PP13385   5.551   3.241  13.509  0.0178  0.2330  0.2062
 3282PP      PP13386   1.568  14.472   2.336  0.1178 -0.2756 -0.0157
 3283PP      PP13387   5.961  13.465   3.917 -0.3000  0.0452 -0.0754
 3284PP      PP13388   4.123  11.406   3.138 -0.1348  0.0492  0.2018
 3285PP      PP13389   9.016  12.881  12.918  0.1279 -0.1519  0.1026
 3286PP      PP13390   0.345   7.506   2.286  0.1169 -0.1254  0.5263
 3287PP      PP13391   5.958  11.987  12.736 -0.4848  0.1333 -0.4112
 3288PP      PP13392   2.079  14.068  11.979  0.0349 -0.0290 -0.0450
 3289PP      PP13393   5.319   2.881   4.404 -0.2797 -0.3207  0.2272
 3290PP      PP13394  15.471   5.045   3.679 -0.1245  0.1125  0.1604
 3291PP      PP13395  15.742  14.198   2.303  0.4966  0.0064  0.2022
 3292PP      PP13396   3.347   0.859   2.726 -0.1596 -0.3034 -0.1931
 3293PP      PP13397  11.299  15.663  12.981 -0.1570  0.0143 -0.1780
 3294PP      PP13398  10.921  11.188  10.626  0.3589 -0.4095 -0.1766
 3295PP      PP13399   9.070  11.495   2.083  0.1029 -0.0660  0.0810
 3296PP      PP13400   1.831   2.099   1.155  0.0155 -0.0965 -0.0129
 3297PP      PP13401   0.576  13.651  10.316  0.6390 -0.2124  0.0039
 3298PP      PP13402   9.643  12.315  12.300  0.1179 -0.0563  0.0286
 3299PP      PP13403   3.277  13.912   4.031 -0.0453 -0.2507  0.0773
 3300PP      PP13404   8.413  12.869   8.949  0.1538 -0.2134  0.1453
 3301PP      PP13405   9.419  15.554  11.165  0.0762  0.0064 -0.2537
 3302PP      PP13406  11.694   9.427   0.182  0.1942 -0.0841  0.0178
 3303PP      PP13407   4.774   5.316   1.436 -0.0283 -0.1389 -0.0527
 3304PP      PP13408  13.135  10.891  12.395 -0.2241 -0.0777 -0.0064
 3305PP      PP13409   8.962   0.213   0.461  0.0836 -0.2445  0.1118
 3306PP      PP13410   3.099   2.939  10.237 -0.0076  0.2193  0.1210
 3307PP      PP13411   9.748  11.047  12.201 -0.1359 -0.0195 -0.4237
 3308PP      PP13412   6.123  14.669   9.529  0.4293  0.1862 -0.1554
 3309PP      PP13413  12.880   2.272  10.405 -0.2703  0.1009 -0.0174
 3310PP      PP13414  13.906   1.031   0.224 -0.1125 -0.2806 -0.1270
 3311PP      PP13415  13.231  12.644   3.050  0.2340  0.1983  0.1342
 3312PP      PP13416   3.582   6.891   1.635  0.1898  0.0620  0.2197
 3313PP      PP13417  12.988   9.906  11.343  0.1047  0.0875 -0.0820
 3314PP      PP13418  14.103   8.544   0.286 -0.0526 -0.1014  0.0907
 3315PP      PP13419   9.621  14.146   1.283  0.0096 -0.0859  0.1059
 3316PP      PP13420   4.593  15.726  11.629  0.0804  0.1325  0.0010
 3317PP      PP13421  11.121   1.783  12.601  0.1075 -0.0434  0.2126
 3318PP      PP13422  11.635  12.341   9.455 -0.3977 -0.3483 -0.1059
 3319PP      PP13423   0.326  13.244  13.350 -0.0249  0.1004  0.0314
 3320PP      PP13424   9.756  15.887   4.447 -0.0746 -0.0665 -0.0263
 3321PP      PP13425   3.752   9.875   4.684 -0.1338 -0.6587 -0.1984
 3322PP      PP13426  14.136   6.712   8.597  0.2361  0.0299  0.0683
 3323PP      PP13427  11.914   9.815   9.349 -0.1723 -0.0294  0.0483
 3324PP      PP13428   2.326   6.098  11.593  0.1947 -0.2496 -0.1669
 3325PP      PP13429   3.490   7.465   3.982  0.0615 -0.1316  0.1948
 3326PP      PP13430  13.432  11.996  11.889  0.2214  0.2821 -0.0879
 3327PP      PP13431   1.151   9.961   4.477 -0.1748  0.0193 -0.2363
 3328PP      PP13432   4.196   5.925   2.340 -0.1585 -0.1180  0.0681
 3329PP      PP13433  15.846  12.627   9.551 -0.3199  0.1418 -0.0958
 3330PP      PP13434   0.243   9.064  11.190 -0.3139 -0.0615  0.1969
 3331PP      PP13435   6.528  10.126   0.262  0.1002  0.0899 -0.2069
 3332PP      PP13436   1.873  10.071   3.158  0.2292  0.0515 -0.1926
 3333PP      PP13437   0.318  14.949   3.735 -0.3485 -0.1317  0.0584
 3334PP      PP13438   6.228   3.430  10.097  0.1249  0.1089  0.0095
 3335PP      PP13439  11.138   5.626   7.880 -0.1731 -0.0681 -0.1273
 3336PP      PP13440   8.938   2.495  11.361 -0.3209  0.0983 -0.1523
 3337PP      PP13441   0.309  11.966   9.877 -0.0845 -0.1122  0.0198
 3338PP      PP13442  15.880   2.086   2.824  0.1343 -0.0345 -0.2394
 3339PP      PP13443  10.345   6.903   0.132  0.2247 -0.0488 -0.1189
 3340PP      PP13444  10.085   7.030  12.611  0.0602 -0.1619  0.1057
 3341PP      PP13445  11.897   7.193   0.307  0.0039  0.1592  0.0805
 3342PP      PP13446   1.967   6.903  10.186  0.1552 -0.0313  0.2126
 3343PP      PP13447   7.825  14.948   0.884 -0.0519 -0.0346 -0.1332
 3344PP      PP13448   3.718   5.344   3.518 -0.4028  0.2229  0.0582
 3345PP      PP13449  12.887  10.231   9.502  0.2263  0.2658  0.0542
 3346PP      PP13450  11.441  14.156   1.162  0.1795  0.1916  0.2018
 3347PP      PP13451   1.682   5.157   9.159  0.1026 -0.1295 -0.0616
 3348PP      PP13452  13.608   9.171   3.487  0.0535  0.1171  0.0637
 3349PP      PP13453  12.773   9.842   4.322  0.1225 -0.0486  0.4111
 3350PP      PP13454   2.036  14.190   3.214  0.2201  0.0044 -0.1657
 3351PP      PP13455   1.377   2.421   1.737 -0.0472 -0.1288  0.5044
 3352PP      PP13456   4.923  13.837  12.002 -0.0054 -0.0805  0.1281
 3353PP      PP13457  11.463   5.902   2.705 -0.1847 -0.0423 -0.2142
 3354PP      PP13458  11.207   0.203   1.106  0.3760 -0.1575  0.1094
 3355PP      PP13459  12.728  10.248  10.315 -0.0087 -0.0393  0.1778
 3356PP      PP13460  15.024   4.705  10.256 -0.1352 -0.0846  0.1249
 3357PP      PP13461   3.285   9.679   1.606  0.1717 -0.2786  0.1295
 3358PP      PP13462   7.470   5.226  10.687  0.2173  0.0566 -0.2984
 3359PP      PP13463  13.453  14.792   2.448 -0.0228  0.0953 -0.1981
 3360PP      PP13464   0.094  11.014  12.757  0.1571  0.0795  0.2505
 3361PP      PP13465  14.823   1.611   1.349  0.0131 -0.0599  0.0642
 3362PP      PP13466  13.354  15.702  13.399  0.0022  0.3817  0.1077
 3363PP      PP13467   2.816  13.969   0.044 -0.0175 -0.1378 -0.3120
 3364PP      PP13468   0.550   3.130  11.800  0.1171 -0.0455 -0.0792
 3365PP      PP13469   6.457  15.456  13.175 -0.3889  0.0777 -0.1541
 3366PP      PP13470   2.858   4.256   0.632  0.0601  0.1615 -0.0273
 3367PP      PP13471   4.394   7.830   0.996 -0.1068 -0.2872  0.2115
 3368PP      PP13472  13.134   4.870   1.374  0.0795  0.1140  0.2076
 3369PP      PP13473  12.694  14.734   3.709  0.0657  0.0784  0.1788
 3370PP      PP13474   6.879   8.059   0.676  0.0338  0.1426 -0.0349
 3371PP      PP13475   0.515   0.756  10.744  0.1062 -0.0904 -0.3077
 3372PP      PP13476  13.123  12.871   0.604 -0.1376 -0.0906  0.1055
 3373PP      PP13477  14.285  13.201  12.771  0.4276 -0.2469  0.2055
 3374PP      PP13478   0.465  10.340  13.233 -0.1157 -0.1402 -0.3064
 3375PP      PP13479   3.383   1.403   2.874 -0.2279 -0.1612 -0.1145
 3376PP      PP13480  14.668   0.842   1.933  0.1705 -0.0226  0.1976
 3377PP      PP13481   0.029   9.128   9.735 -0.2062 -0.1226 -0.1324
 3378PP      PP13482   0.066   4.193   9.730 -0.1739 -0.2495  0.0764
 3379PP      PP13483   7.463   7.649  12.068  0.2902  0.0490 -0.0266
 3380PP      PP13484   5.059   3.399  12.145 -0.2896  0.1833  0.1778
 3381PP      PP13485  12.893  12.358   1.884 -0.1639 -0.1893  0.1523
 3382PP      PP13486  12.411   2.723   0.438 -0.1466  0.1306 -0.5908
 3383PP      PP13487   5.361   7.922  12.953  0.0424 -0.0434 -0.1687
 3384PP      PP13488   6.253   7.661   4.493  0.0153  0.2236 -0.0238
 3385PP      PP13489   1.975  12.368   9.214  0.2737  0.0993 -0.0432
 3386PP      PP13490  13.310   2.400   0.852 -0.3044  0.1295  0.1996
 3387PP      PP13491   7.010   9.208   2.747 -0.0155  0.0797  0.3155
 3388PP      PP13492   2.458  15.128   0.175  0.2667 -0.1889  0.0325
 3389PP      PP13493  11.119   6.513  11.049 -0.0632 -0.0134  0.1366
 3390PP      PP13494   4.948   7.842  12.631 -0.0381  0.1202  0.1914
 3391PP      PP13495  10.522   6.886  12.768 -0.2859 -0.2743  0.0637
 3392PP      PP13496  14.663   2.873   2.546  0.0212 -0.0932  0.1366
 3393PP      PP13497  13.177   2.629  10.737  0.2589  0.0855  0.0575
 3394PP      PP13498  11.113   2.035   3.228 -0.1110  0.1257 -0.0954
 3395PP      PP13499  13.159   2.049   1.447  0.1789  0.0602 -0.0470
 3396PP      PP13500   8.577  15.866  10.208 -0.0287  0.3270 -0.2374
 3397PP      PP13501  14.791   6.288  12.851  0.1681  0.0362 -0.0993
 3398PP      PP13502   7.734  14.000   0.812  0.1237  0.0621 -0.0491
 3399PP      PP13503   1.055   6.361   3.621 -0.1300  0.3102  0.2816
 3400PP      PP13504  13.591   6.395  10.899  0.0254 -0.2894  0.1613
 3401PP      PP13505  11.131   7.876   0.539  0.0526  0.2904 -0.1165
 3402PP      PP13506   1.476   1.820  10.796  0.0187  0.0752 -0.3209
 3403PP      PP13507  12.958  10.625  11.962  0.1402 -0.0608  0.1381
 3404PP      PP13508  12.134   6.829  13.394  0.2830 -0.0120  0.0218
 3405PP      PP13509   6.207   9.344   2.291  0.0468  0.0744  0.1977
 3406PP      PP13510   3.698  14.972   0.957  0.0896 -0.0263 -0.2234
 3407PP      PP13511   9.143   9.712   1.867 -0.2887 -0.1521 -0.0668
 3408PP      PP13512   8.506   2.766  11.210 -0.1414  0.0439 -0.0327
 3409PP      PP13513  15.185  12.874  10.166  0.1607 -0.1018  0.1145
 3410PP      PP13514   1.269   0.982   9.859 -0.2059  0.1732  0.0833
 3411PP      PP13515  12.870  13.090   3.309  0.0474  0.1007  0.1273
 3412PP      PP13516   2.396   6.633  12.519 -0.1464  0.2564  0.2020
 3413PP      PP13517  11.638   1.284   0.274  0.3640  0.0728 -0.2561
 3414PP      PP13518  13.386   7.692  12.555 -0.0013 -0.2483 -0.2587
 3415PP      PP13519   2.686  15.343   1.829  0.1757  0.4499  0.1628
 3416PP      PP13520   6.333   6.737  12.196  0.0881  0.1593 -0.0742
 3417PP      PP13521   6.499   9.824   3.778 -0.0966 -0.1648 -0.1434
 3418PP      PP13522  11.950   9.174   0.666 -0.0427  0.2044  0.3571
 3419PP      PP13523   7.784  11.172  10.600 -0.0500  0.0394  0.1378
 3420PP      PP13524  15.130  13.940  12.783 -0.1109  0.1515  0.2141
 3421PP      PP13525  11.844   0.509  13.052  0.2348 -0.0388  0.2354
 3422PP      PP13526   5.462  15.077  13.312  0.0928  0.3027  0.0969
 3423PP      PP13527   6.533  11.359  13.191 -0.0465 -0.1162  0.0423
 3424PP      PP13528  12.886   5.584   0.124  0.0510  0.0892  0.1821
 3425PP      PP13529   5.357   1.233  12.366 -0.0916  0.0953 -0.1625
 3426PP      PP13530  11.831  14.514   1.351 -0.0370 -0.3319  0.0572
 3427PP      PP13531  14.739  13.212   3.152  0.2943  0.0529  0.4413
 3428PP      PP13532   0.665   4.776   9.004  0.2038 -0.0876  0.0673
 3429PP      PP13533   0.452   6.018  10.834  0.0513 -0.0294  0.1092
 3430PP      PP13534   2.430   4.963  11.547 -0.0362  0.2092 -0.1543
 3431PP      PP13535   0.591  10.579  10.627  0.0563 -0.2378 -0.0382
 3432PP      PP13536  10.116   4.546   2.478 -0.0543  0.1723  0.0822
 3433PP      PP13537   9.696   6.080   8.757 -0.0680 -0.0977  0.2467
 3434PP      PP13538  12.589   6.024   1.684  0.0270  0.1964  0.1818
 3435PP      PP13539  11.159   1.070  13.519 -0.0126  0.3392 -0.1656
 3436PP      PP13540   0.028   7.104  11.735  0.1051 -0.3105 -0.0403
 3437PP      PP13541  13.682  10.679   1.450 -0.1819 -0.1631  0.0882
 3438PP      PP13542   5.093   4.254  13.516  0.0082 -0.0673  0.0503
 3439PP      PP13543   3.256   4.753   9.525 -0.0229 -0.2889 -0.1533
 3440PP      PP13544   3.114   6.255   4.515  0.0246 -0.0562 -0.1354
 3441PP      PP13545  13.509   6.725   0.580 -0.0891 -0.3352 -0.0608
 3442PP      PP13546   9.307   2.662   1.283 -0.1691  0.0170  0.1927
 3443PP      PP13547   1.375   3.830   2.211 -0.3327 -0.1779 -0.1555
 3444PP      PP13548   1.118   9.679   3.997  0.1887  0.2218  0.2437
 3445PP      PP13549  12.205   8.603  11.466  0.4054  0.0490  0.1216
 3446PP      PP13550  10.460  15.311   9.768 -0.1706  0.0328  0.2591
 3447PP      PP13551  11.953  12.548  10.168  0.3637  0.0721  0.0814
 3448PP      PP13552  14.145  15.851   1.865  0.1576 -0.1479 -0.0678
 3449PP      PP13553   6.964   6.179  10.474  0.1506 -0.1496 -0.2391
 3450PP      PP13554   4.319  11.924   0.241 -0.1404 -0.2142 -0.1236
 3451PP      PP13555   1.980   3.483  12.387 -0.0349  0.2367  0.0680
 3452PP      PP13556  11.721   8.393   9.093  0.1598  0.2142 -0.2593
 3453PP      PP13557   6.011  12.794   0.179 -0.0318  0.2930 -0.2556
 3454PP      PP13558   4.429  10.741   1.299 -0.3045 -0.1771 -0.4494
 3455PP      PP13559   0.134   7.501   8.663 -0.1971 -0.0787 -0.0665
 3456PP      PP13560   4.920  12.941   3.146  0.1511 -0.1427 -0.2593
 3457PP      PP13561   2.764   4.697   2.339  0.0610 -0.0592  0.2002
 3458PP      PP13562   9.271   5.379   8.948  0.3965  0.4106 -0.1615
 3459PP      PP13563   6.234  13.926   0.498 -0.3203  0.2206 -0.2172
 3460PP      PP13564   3.177  10.197   2.912 -0.0299  0.0733  0.1877
 3461PP      PP13565  10.307  10.307   9.673 -0.0361  0.1202  0.2283
 3462PP      PP13566  12.145   8.614   9.987 -0.2753 -0.5219 -0.0305
 3463PP      PP13567  10.853   4.716  13.131  0.1756  0.0747 -0.1894
 3464PP      PP13568  12.053   8.176   9.968 -0.1752 -0.0435 -0.0371
 3465PP      PP13569  15.058   8.055  10.245  0.1433  0.4999 -0.0856
 3466PP      PP13570   5.323   1.521  11.234 -0.0359  0.2521 -0.2024
 3467PP      PP13571  13.584  11.444   2.893  0.0260  0.0090  0.1153
 3468PP      PP13572  10.687   6.871  10.170  0.1402  0.0548  0.1241
 3469PP      PP13573  13.767  12.340   4.358 -0.4816  0.0408 -0.0169
 3470PP      PP13574   3.812   9.756   3.423 -0.1512  0.0858  0.1098
 3471PP      PP13575   0.474  13.552   4.256 -0.2437  0.2282 -0.0240
 3472PP      PP13576   1.922  13.664   3.428  0.0091  0.1864 -0.2812
 3473PP      PP13577   9.963   2.135   3.329 -0.2346 -0.1889 -0.2011
 3474PP      PP13578  15.552   9.155   2.167  0.1880 -0.1624 -0.1294
 3475PP      PP13579   7.305   6.548   9.728  0.1499 -0.0770  0.0031
 3476PP      PP13580   8.708  10.927   1.289  0.2858  0.0996  0.0394
 3477PP      PP13581  11.822   6.924  11.251  0.3465  0.0525 -0.0822
 3478PP      PP13582  13.240   2.118   8.115  0.0717 -0.0604  0.0021
 3479PP      PP13583   6.178   7.331  13.498  0.1015  0.1138  0.0253
 3480PP      PP13584   4.578   1.367  12.862  0.1595  0.0557  0.2251
 3481PP      PP13585  14.815   1.584   1.891 -0.0557  0.0778  0.0956
 3482PP      PP13586   7.106  11.852  11.305  0.2700  0.0251  0.0511
 3483PP      PP13587   9.953  13.684   9.576  0.1962 -0.6851  0.2936
 3484PP      PP13588  10.138  15.846  10.040 -0.1147 -0.4237  0.2866
 3485PP      PP13589   7.684  11.345   4.260 -0.3760  0.0213  0.3874
 3486PP      PP13590  12.308  13.023   3.976  0.2015 -0.2085 -0.2155
 3487PP      PP13591   6.076   7.914  10.149  0.0985  0.1262  0.1407
 3488PP      PP13592  11.740   0.530  10.901 -0.1862 -0.0879  0.0455
 3489PP      PP13593  10.827  14.114   2.729 -0.2062  0.0385  0.0915
 3490PP      PP13594  14.594   7.783   1.843  0.2295  0.1682  0.2656
 3491PP      PP13595  12.079  11.028  13.388  0.0464  0.2987  0.1067
 3492PP      PP13596  10.277   2.223  12.220 -0.1500 -0.1229  0.1151
 3493PP      PP13597   1.684  10.298   4.952  0.3001  0.1374  0.0662
 3494PP      PP13598  15.698   2.400   1.497  0.3337 -0.0588 -0.3820
 3495PP      PP13599  14.797  13.118  12.042 -0.2213 -0.0486 -0.0653
 3496PP      PP13600  15.795  14.772   3.390 -0.4028  0.1872  0.2274
 3497PP      PP13601  10.386  10.033   3.063  0.2485 -0.1807 -0.0887
 3498PP      PP13602  10.367   8.670   8.416  0.0751  0.2406 -0.0873
 3499PP      PP13603  11.810  10.307   8.392 -0.1372  0.0851  0.2728
 3500PP      PP13604  13.787   4.692  10.392  0.3077 -0.2580 -0.2541
 3501PP      PP13605  12.730  14.116   0.718  0.1756  0.0829 -0.3020
 3502PP      PP13606  10.949   6.816   0.105 -0.0335 -0.1458 -0.1180
 3503PP      PP13607  13.387  12.287   1.812 -0.2029 -0.0817 -0.0162
 3504PP      PP13608   3.725   5.528  10.071  0.0247  0.0269 -0.1104
 3505PP      PP13609  13.757  11.922   3.778 -0.0740 -0.1066  0.0583
 3506PP      PP13610  13.695   2.824   3.783  0.2335 -0.0156 -0.0560
 3507PP      PP13611  15.467   8.828   9.875  0.1158 -0.3572 -0.0148
 3508PP      PP13612   6.013   3.854   9.969  0.0568 -0.0070  0.1071
 3509PP      PP13613   0.510  10.672   8.713  0.0286 -0.1139  0.3897
 3510PP      PP13614   6.326   9.942   4.339 -0.0650 -0.0934 -0.0238
 3511PP      PP13615   0.700   4.404   0.205 -0.2860 -0.1241 -0.0032
 3512PP      PP13616   4.765   1.600   1.681 -0.2098  0.1499  0.1590
 3513PP      PP13617  15.583   7.225   3.000  0.1112 -0.1822 -0.0269
 3514PP      PP13618  10.023   2.119   0.755  0.1052  0.1451 -0.4906
 3515PP      PP13619   5.855  14.921   9.183 -0.0271 -0.0674 -0.2605
 3516PP      PP13620   6.633  15.340  11.809 -0.2213 -0.0758  0.0054
 3517PP      PP13621   9.572  13.936   1.903 -0.1394 -0.0022 -0.1393
 3518PP      PP13622  14.096  15.551   0.779  0.0272 -0.0760 -0.1210
 3519PP      PP13623   3.607   0.738   0.787 -0.1128  0.1116  0.0948
 3520PP      PP13624   0.405  12.655   0.146 -0.1238  0.0599 -0.2743
 3521PP      PP13625   6.438   3.972   1.347 -0.1392  0.1732  0.0772
 3522PP      PP13626   1.812   1.210   3.390 -0.0203  0.2604 -0.0518
 3523PP      PP13627   7.686  12.752   1.124 -0.1833  0.1453 -0.1688
 3524PP      PP13628  10.732   2.461   2.246 -0.4532  0.3280 -0.3745
 3525PP      PP13629  12.397  15.111   1.487  0.1637 -0.1774  0.3406
 3526PP      PP13630  12.812   4.448   1.373  0.0564  0.2982  0.1429
 3527PP      PP13631   6.887  11.134   2.613  0.0271  0.1385  0.0206
 3528PP      PP13632  14.054   9.233   1.228  0.0333  0.0006 -0.1643
 3529PP      PP13633   6.387   0.198   3.676  0.0289  0.2736  0.0239
 3530PP      PP13634  15.010   1.290   9.104  0.0201 -0.0884  0.3077
 3531PP      PP13635   9.407   5.596   0.836  0.1232  0.1847  0.0361
 3532PP      PP13636   7.240  13.290   0.972  0.0608  0.2709 -0.0525
 3533PP      PP13637   6.751   7.943  11.519  0.0241  0.0383 -0.0187
 3534PP      PP13638   6.383   6.781   0.364 -0.0888 -0.2451 -0.1143
 3535PP      PP13639   9.109   6.605   1.024 -0.4317 -0.1784 -0.0436
 3536PP      PP13640  14.027   5.326   2.440  0.0622  0.1191 -0.0894
 3537PP      PP13641   8.580   2.400  11.740 -0.0581  0.2256 -0.1715
 3538PP      PP13642  14.746   8.462  10.173  0.2367  0.0177 -0.0725
 3539PP      PP13643  12.271   0.808  11.786  0.3074 -0.1335  0.1211
 3540PP      PP13644   1.983   3.664  11.543 -0.2342  0.0418  0.0904
 3541PP      PP13645   6.583  10.824   0.305 -0.0103  0.0030 -0.0009
 3542PP      PP13646   5.787  14.153  12.469 -0.2054  0.0042  0.2259
 3543PP      PP13647   6.821  14.765   3.032  0.1434 -0.0541 -0.1555
 3544PP      PP13648   0.595   6.447  12.665 -0.0878 -0.0897  0.0107
 3545PP      PP13649   8.593   3.426  12.780  0.1407  0.1433 -0.0386
 3546PP      PP13650   1.490   2.570   2.208 -0.0729  0.1281  0.0982
 3547PP      PP13651   5.945  12.195  10.319 -0.1651  0.0419  0.0645
 3548PP      PP13652   8.408   2.245  12.644 -0.0434 -0.1328 -0.1735
 3549PP      PP13653   3.926  11.339   9.665  0.0826  0.0689 -0.0753
 3550PP      PP13654   1.307  10.583  13.126 -0.3849 -0.0897  0.1422
 3551PP      PP13655  14.462   3.184   2.105  0.0952 -0.1537 -0.0521
 3552PP      PP13656  10.481   3.628   9.692 -0.4194 -0.0399 -0.0921
 3553PP      PP13657   2.881  11.266  10.388 -0.2970  0.2814  0.2277
 3554PP      PP13658  14.885  14.210   4.076  0.2747 -0.1031 -0.2676
 3555PP      PP13659   0.418   4.901   1.823 -0.0027  0.1006 -0.1624
 3556PP      PP13660   2.424  15.854   9.671  0.1553  0.3478 -0.1881
 3557PP      PP13661   5.534   0.043  10.178  0.3148  0.2772 -0.2502
 3558PP      PP13662  14.121   7.235  11.944  0.0674  0.0425  0.0777
 3559PP      PP13663   8.095  10.222  12.969  0.1620 -0.1848 -0.0111
 3560PP      PP13664   2.995   2.658  12.077  0.3046 -0.4347 -0.0591
 3561PP      PP13665  13.675   8.580   9.564  0.1204 -0.2458 -0.0034
 3562PP      PP13666  15.192  12.247   4.003 -0.2351  0.2629  0.0312
 3563PP      PP13667   8.351  10.233   4.304  0.3585  0.1796 -0.1524
 3564PP      PP13668  10.633  14.284   9.669 -0.5202  0.1849 -0.1623
 3565PP      PP13669   3.490   3.409   1.723 -0.4024  0.1875  0.1430
 3566PP      PP13670   2.473   1.505  11.390  0.2098 -0.0977  0.0478
 3567PP      PP13671   4.841   8.570   3.090 -0.1396  0.1205  0.1974
 3568PP      PP13672   7.931   3.164  11.909  0.1323 -0.4183 -0.3138
 3569PP      PP13673  12.500  11.695   8.784  0.0642 -0.0117  0.0205
 3570PP      PP13674  13.346   7.119   9.248 -0.0035  0.0721  0.0514
 3571PP      PP13675   4.983   8.760  11.226 -0.1340 -0.0836  0.0740
 3572PP      PP13676   3.198   9.059   4.716 -0.0265 -0.2357 -0.0106
 3573PP      PP13677  10.972   9.195  11.346  0.0713 -0.0972  0.0487
 3574PP      PP13678   7.816   6.039   0.877  0.3563  0.0679 -0.1535
 3575PP      PP13679  10.072  14.385   9.730  0.0299  0.0169 -0.0804
 3576PP      PP13680   1.931  10.464   3.452 -0.1197  0.1128 -0.0009
 3577PP      PP13681  13.325   1.401   0.593 -0.0536 -0.0062 -0.1704
 3578PP      PP13682   6.095  12.181  12.246  0.1466  0.1419 -0.0091
 3579PP      PP13683   3.384   3.078  11.147 -0.2592 -0.3049 -0.0170
 3580PP      PP13684   5.673   9.940  10.825 -0.0870 -0.0074  0.1221
 3581PP      PP13685   6.182   3.006   0.148  0.2137  0.2335 -0.4713
 3582PP      PP13686   7.293  11.178   1.054  0.0429 -0.0365 -0.1010
 3583PP      PP13687   8.254   7.970   2.532  0.1684 -0.3842 -0.1990
 3584PP      PP13688   1.311   8.790  10.547  0.0895  0.1532 -0.1425
 3585PP      PP13689   4.671   5.016  10.856 -0.0135  0.2650 -0.0013
 3586PP      PP13690   3.660  10.499   1.530 -0.1183 -0.2194 -0.1856
 3587PP      PP13691  10.050  15.427   2.490 -0.2732  0.2243  0.3038
 3588PP      PP13692   5.448   0.687   4.480 -0.0482 -0.0203 -0.0867
 3589PP      PP13693   1.410   1.334   2.412 -0.0074 -0.1625 -0.2176
 3590PP      PP13694  14.271   1.239   3.871 -0.0289  0.1461 -0.1968
 3591PP      PP13695  14.738   1.618   3.731  0.2080 -0.0638 -0.0458
 3592PP      PP13696  14.907  15.755  12.556 -0.0332  0.0171  0.1775
 3593PP      PP13697  12.646   5.100  12.223 -0.1623  0.0283 -0.1316
 3594PP      PP13698   2.934   2.873   2.557 -0.1058  0.0516  0.1330
 3595PP      PP13699   8.441   9.769   4.021  0.1518  0.0710  0.1109
 3596PP      PP13700  15.722   8.121  10.941 -0.1538  0.0837 -0.1733
 3597PP      PP13701  14.676   1.787   2.344  0.0509 -0.2666 -0.0022
 3598PP      PP13702   9.576  13.247   9.647 -0.1463  0.2873  0.1540
 3599PP      PP13703  10.459   3.459  10.305  0.2120  0.3292 -0.1110
 3600PP      PP13704  14.347  14.425  11.605 -0.0409 -0.1477 -0.1707
 3601PP      PP13705  14.506   5.141  11.002  0.3173  0.0031 -0.0921
 3602PP      PP13706  13.030  15.740   0.308  0.1611 -0.0722  0.0160
 3603PP      PP13707  14.584   6.809   3.881 -0.0355 -0.2109 -0.0111
 3604PP      PP13708   2.255   1.455   3.227 -0.0017  0.0284  0.1499
 3605PP      PP13709   1.544  14.809   9.223  0.0702  0.0938  0.2320
 3606PP      PP13710   6.940   2.869   4.616 -0.1160 -0.2452 -0.0493
 3607PP      PP13711   3.077   2.876  13.099 -0.0991 -0.2560 -0.2200
 3608PP      PP13712   6.495   5.020   0.750 -0.3557 -0.0910  0.0209
 3609PP      PP13713   8.028   8.406  13.167 -0.0174 -0.0681 -0.2834
 3610PP      PP13714  11.067   9.748  10.906 -0.1947  0.1174 -0.1853
 3611PP      PP13715   6.507   1.981  11.869 -0.0681  0.0936 -0.0687
 3612PP      PP13716  13.359  14.743  10.974 -0.1963  0.2034  0.2192
 3613PP      PP13717   3.931   8.715   3.528  0.1546 -0.1689  0.0289
 3614PP      PP13718  12.465  15.647   1.810  0.2831  0.0235  0.1998
 3615PP      PP13719   4.381   2.398   2.581  0.0754  0.2263 -0.0297
 3616PP      PP13720   2.899   7.990  11.238  0.2179 -0.1332 -0.1356
 3617PP      PP13721  12.170   0.580   1.310  0.0860 -0.0822  0.1422
 3618PP      PP13722   5.481  11.961  12.010  0.1677  0.3396 -0.1649
 3619PP      PP13723   3.095   5.136   0.717 -0.3230 -0.1932  0.0407
 3620PP      PP13724   8.537   4.110   2.872  0.0827  0.1044 -0.2764
 3621PP      PP13725  10.884   0.710   4.278  0.0712 -0.1850 -0.2360
 3622PP      PP13726  11.002   6.577   9.370 -0.2167 -0.1339  0.2689
 3623PP      PP13727  13.640   3.265   1.718 -0.1562  0.2662  0.3283
 3624PP      PP13728   2.559   4.959   1.956 -0.2353  0.1903 -0.0084
 3625PP      PP13729   0.235  12.359   1.866 -0.1661 -0.1202  0.4124
 3626PP      PP13730  13.677  14.525  12.447  0.1954 -0.0472  0.1240
 3627PP      PP13731  12.888   8.010   9.367  0.0823  0.4857  0.2253
 3628PP      PP13732  12.686   0.131  12.340 -0.0936 -0.1553  0.1771
 3629PP      PP13733   3.375   2.542  11.627 -0.0532 -0.2696  0.1799
 3630PP      PP13734   5.611   8.990   8.134 -0.1172  0.2778 -0.3513
 3631PP      PP13735  12.555   6.845  12.071 -0.2304  0.2465  0.2055
 3632PP      PP13736   1.101   1.617  12.552  0.1430 -0.0159 -0.3260
 3633PP      PP13737   1.077  11.767   3.308 -0.3749  0.3317  0.0797
 3634PP      PP13738   0.365   9.646   2.272 -0.0185 -0.0551 -0.0535
 3635PP      PP13739  12.249   5.569   7.523 -0.0181  0.2495  0.1321
 3636PP      PP13740  11.634   9.704   2.394 -0.0746 -0.2966 -0.0136
 3637PP      PP13741  13.405   9.302  11.991  0.1795 -0.0117  0.1470
 3638PP      PP13742  11.767   7.452  11.145  0.2157 -0.1554 -0.3276
 3639PP      PP13743  13.609   8.510   2.050 -0.1862 -0.1875 -0.3583
 3640PP      PP13744  11.682   1.760   0.377  0.1336 -0.1200  0.1371
 3641PP      PP13745  14.882   0.634  13.039 -0.2304  0.2044 -0.0046
 3642PP      PP13746   4.406   0.556   0.407 -0.0964  0.0997 -0.0224
 3643PP      PP13747  15.432   8.893   1.596 -0.1470  0.1863  0.0406
 3644PP      PP13748   5.800   7.567  11.576 -0.2298 -0.2154  0.1768
 3645PP      PP13749  13.344   0.801   3.950 -0.1004 -0.2311 -0.0317
 3646PP      PP13750  15.180   8.803   2.112  0.0665  0.0701 -0.2115
 3647PP      PP13751   1.068  13.721   3.795 -0.0933  0.0890  0.1300
 3648PP      PP13752  15.850   1.367  12.616 -0.2719 -0.1148  0.2041
 3649PP      PP13753  13.855  13.923   9.841 -0.1780 -0.3393 -0.3935
 3650PP      PP13754   8.972   4.337  12.055 -0.0473 -0.1080  0.1769
 3651PP      PP13755   7.483  11.805   9.162 -0.1834  0.2600  0.1093
 3652PP      PP13756  12.782   3.038   0.290  0.1437 -0.0251 -0.0069
 3653PP      PP13757   3.699   9.988   2.024 -0.2562  0.1844 -0.2127
 3654PP      PP13758   9.155  14.381   0.833 -0.0165 -0.1219  0.0922
 3655PP      PP13759   7.214   7.489   9.909 -0.0154 -0.2057 -0.0189
 3656PP      PP13760  10.535   2.976   0.534 -0.2624  0.2269  0.0066
 3657PP      PP13761   0.685  15.344   1.794  0.0116 -0.1673  0.0142
 3658PP      PP13762  14.511  10.759  11.162 -0.2497 -0.1741  0.5832
 3659PP      PP13763  10.087   6.507  10.737  0.0198 -0.1806  0.1882
 3660PP      PP13764   1.516   2.958   0.858  0.0464  0.4111 -0.0562
 3661PP      PP13765  12.319  12.071   0.586  0.1582  0.2385  0.4460
 3662PP      PP13766   9.644   1.252   4.481  0.0061  0.5312 -0.4898
 3663PP      PP13767   7.239  14.607  12.001 -0.0878  0.2046 -0.0430
 3664PP      PP13768   1.768  13.592  12.020  0.3779 -0.3460  0.1362
 3665PP      PP13769   2.281   4.418   3.186 -0.2141 -0.1918 -0.1477
 3666PP      PP13770  14.973   7.318   0.225 -0.1757 -0.1878  0.0662
 3667PP      PP13771   2.124   7.359   3.303  0.0151 -0.0660  0.0138
 3668PP      PP13772  12.863  14.978  10.767  0.1287  0.2269 -0.3894
 3669PP      PP13773   2.652  12.115   0.213  0.2097  0.0147 -0.0606
 3670PP      PP13774  12.397  14.397  11.095 -0.2280  0.5465  0.2351
 3671PP      PP13775  12.819  14.402   3.134 -0.0256 -0.0961 -0.0895
 3672PP      PP13776   5.896  14.082  10.954 -0.1638 -0.0478 -0.0034
 3673PP      PP13777   4.666   0.944   9.356  0.1013  0.1279  0.2142
 3674PP      PP13778   7.134  11.652   4.874  0.0179 -0.1711  0.3330
 3675PP      PP13779   9.709   9.340  11.048 -0.0146  0.0862 -0.2302
 3676PP      PP13780   0.514   6.783  12.321 -0.1055  0.3253 -0.0247
 3677PP      PP13781  11.229   3.013   2.411 -0.0131  0.0523 -0.0562
 3678PP      PP13782  11.006   7.251   9.997  0.0127  0.0066  0.1611
 3679PP      PP13783   6.569  13.801   0.942 -0.1401  0.0095  0.1681
 3680PP      PP13784  12.851   0.733   4.218 -0.2908  0.0599 -0.0182
 3681PP      PP13785   1.715  13.307   3.102 -0.1656  0.2830 -0.1196
 3682PP      PP13786   8.008  11.366  11.157  0.1587 -0.2660  0.1587
 3683PP      PP13787   6.674   9.550   0.278 -0.3581 -0.0325  0.1885
 3684PP      PP13788   1.950  14.643  12.893  0.0129  0.1725 -0.0004
 3685PP      PP13789   2.906   7.335   2.120  0.2603 -0.1156 -0.1632
 3686PP      PP13790  15.425   5.035  13.323 -0.1664  0.1124 -0.3098
 3687PP      PP13791  11.519   2.404   0.222 -0.0095 -0.0189 -0.2464
 3688PP      PP13792  12.003  11.106   0.384 -0.0387 -0.0238 -0.1289
 3689PP      PP13793   8.848   5.211   9.733 -0.2078 -0.0850 -0.3143
 3690PP      PP13794  12.451   4.067   3.523 -0.1120  0.0317  0.0398
 3691PP      PP13795   3.209   7.384  13.165 -0.3118 -0.1887  0.1581
 3692PP      PP13796   7.741  10.411  11.513 -0.2002 -0.1806  0.3748
 3693PP      PP13797   6.420  12.953  12.471 -0.0235  0.1184  0.2598
 3694PP      PP13798   1.188   5.830   0.527  0.0839 -0.1476  0.2159
 3695PP      PP13799  15.680   7.636   9.204  0.3455  0.0912 -0.2592
 3696PP      PP13800   1.544  10.339   0.925 -0.0175  0.1433 -0.0213
 3697PP      PP13801  11.882   6.202   0.016  0.1929 -0.1235 -0.0110
 3698PP      PP13802   6.495   9.490  10.259  0.0354 -0.2742  0.3427
 3699PP      PP13803   1.895  10.492   9.227  0.2058  0.0948 -0.0433
 3700PP      PP13804   4.929   3.361   9.627 -0.1821  0.1334  0.2482
 3701PP      PP13805  14.780   3.691  11.026  0.0332  0.1366  0.3244
 3702PP      PP13806   2.507   4.623   2.761 -0.1876 -0.1513  0.2072
 3703PP      PP13807  10.722  10.880   2.789  0.1441  0.1600 -0.4714
 3704PP      PP13808   9.018  13.659  12.487  0.4368 -0.0708  0.0536
 3705PP      PP13809   1.147   2.778  11.627 -0.1400  0.0394  0.1298
 3706PP      PP13810   8.579   8.158  13.274 -0.2024  0.1024 -0.1425
 3707PP      PP13811   0.046   6.576   0.607  0.0121 -0.1955  0.0440
 3708PP      PP13812   9.428   5.019   1.346  0.0706 -0.1111 -0.0431
 3709PP      PP13813  10.026   4.435  13.083 -0.1562  0.3977  0.1494
 3710PP      PP13814  11.218   3.604   3.446 -0.4177 -0.1225  0.4354
 3711PP      PP13815   8.537   7.081   1.546  0.1510  0.1234  0.1914
 3712PP      PP13816   6.304   6.146   9.819 -0.1664  0.2657 -0.0914
 3713PP      PP13817   0.919   8.728   1.957  0.4489 -0.1070  0.2362
 3714PP      PP13818   4.888  13.597   3.027 -0.0113  0.0261 -0.2287
 3715PP      PP13819   0.666   2.727   0.976  0.2007 -0.0583  0.0955
 3716PP      PP13820  12.232  13.516  13.494 -0.0035  0.0127 -0.1022
 3717PP      PP13821  14.873   8.620   8.757 -0.0654 -0.0038 -0.0653
 3718PP      PP13822   9.064   0.834  11.541 -0.0551 -0.3185  0.1631
 3719PP      PP13823   8.556   8.378   2.432  0.0444 -0.0020  0.1261
 3720PP      PP13824  11.666   3.663  12.379 -0.1451  0.0604 -0.0465
 3721PP      PP13825   1.426   1.055  13.258  0.1937 -0.2578 -0.0264
 3722PP      PP13826   3.721   1.039  11.417 -0.2825 -0.1573  0.0831
 3723PP      PP13827   1.851  15.650  11.239 -0.0438  0.0046 -0.3001
 3724PP      PP13828   0.043   6.982   8.744 -0.3204 -0.0190 -0.0717
 3725PP      PP13829  14.652   0.050  12.080 -0.2385  0.1199  0.2760
 3726PP      PP13830  14.272   0.486  11.204  0.0767  0.2205 -0.1764
 3727PP      PP13831   7.110   6.555  11.175 -0.1263 -0.1014  0.1639
 3728PP      PP13832  10.186   9.991   2.474 -0.3275 -0.1859  0.2313
 3729PP      PP13833   8.721   8.457  12.849  0.2607  0.1339  0.0702
 3730PP      PP13834   4.682   8.538   9.805  0.2751  0.1303 -0.0381
 3731PP      PP13835   2.524   9.587  11.134  0.3228  0.2004 -0.2025
 3732PP      PP13836   3.232   3.469   0.187  0.1881  0.0780  0.0378
 3733PP      PP13837  11.213   9.572   8.764 -0.3414  0.1268 -0.0206
 3734PP      PP13838   2.019  14.441   4.065  0.0510  0.1321 -0.4445
 3735PP      PP13839  10.434  13.143  12.759  0.1316  0.2764 -0.2121
 3736PP      PP13840  13.160  15.670   2.816  0.0372  0.0620 -0.1442
 3737PP      PP13841   5.257  10.802   2.441 -0.0181  0.1369  0.1201
 3738PP      PP13842   7.083  14.483   3.871  0.1968  0.0125  0.0178
 3739PP      PP13843   3.086   9.533  13.178  0.1442 -0.2578 -0.3574
 3740PP      PP13844   9.626  10.576   3.860 -0.0125 -0.1852  0.1551
 3741PP      PP13845   1.136   8.857  13.315  0.0423  0.1686  0.0710
 3742PP      PP13846   9.129   8.908   1.050 -0.0023  0.2027 -0.3670
 3743PP      PP13847  13.473  13.386   3.819 -0.1448  0.0502  0.2098
 3744PP      PP13848   9.569   9.336   2.103 -0.1447 -0.0050 -0.4182
 3745PP      PP13849   0.308   3.076   3.640 -0.1260  0.0508 -0.3069
 3746PP      PP13850  12.093   2.369  12.812 -0.1303  0.1319 -0.4336
 3747PP      PP13851  14.567  13.985  12.493 -0.0673 -0.1190  0.2855
 3748PP      PP13852   5.950   9.812   2.111  0.1627  0.1568  0.1893
 3749PP      PP13853   0.875   7.866  10.910 -0.1301 -0.0095 -0.0081
 3750PP      PP13854   0.142  13.601  13.144  0.2246 -0.4610 -0.1208
 3751PP      PP13855  11.736   6.131  10.699  0.1155 -0.3673 -0.2365
 3752PP      PP13856   0.962  14.021  10.073  0.1383  0.0466  0.2320
 3753PP      PP13857   3.550   2.574  12.944  0.0083  0.2181  0.1288
 3754PP      PP13858   4.695   4.644   9.247 -0.2551  0.1911 -0.1731
 3755PP      PP13859  12.997   3.067   8.682  0.3217  0.0656 -0.0274
 3756PP      PP13860   0.181   3.684   0.017 -0.3573  0.3643 -0.2041
 3757PP      PP13861  15.003   2.011   1.491  0.0490  0.2159 -0.2994
 3758PP      PP13862  15.503   8.343   0.539 -0.0985  0.3096 -0.1102
 3759PP      PP13863  11.392   6.631  10.520  0.0514  0.0091  0.0538
 3760PP      PP13864   5.897   8.685   2.356 -0.0046  0.0695 -0.1262
 3761PP      PP13865   0.869   7.546   2.407  0.3542 -0.0132 -0.0859
 3762PP      PP13866   0.396   0.448   1.523 -0.0416 -0.0312  0.2283
 3763PP      PP13867  10.526  11.051  13.083  0.0406  0.1062  0.0217
 3764PP      PP13868  10.891  13.640  13.395 -0.0099 -0.1250 -0.0533
 3765PP      PP13869   6.933   8.491   0.107  0.1851 -0.2166 -0.1326
 3766PP      PP13870  15.330   0.793  12.317  0.1596  0.1007  0.2106
 3767PP      PP13871  15.251   9.762   1.012 -0.1655 -0.0413  0.5873
 3768PP      PP13872   8.277   5.394   1.969 -0.1097  0.2188 -0.1572
 3769PP      PP13873  14.217  14.464   0.497 -0.1383 -0.1082 -0.0043
 3770PP      PP13874  12.408   0.698   9.553 -0.0089 -0.1547  0.1143
 3771PP      PP13875   4.878  15.777   0.783  0.1318  0.1803 -0.0526
 3772PP      PP13876   9.413  15.476   3.485  0.2689  0.1402  0.0934
 3773PP      PP13877   0.877  10.390  10.211  0.3418  0.1021  0.1190
 3774PP      PP13878   0.751   6.042   4.185 -0.4034 -0.1189 -0.0754
 3775PP      PP13879   8.738   3.043  11.673 -0.0989 -0.1155  0.4676
 3776PP      PP13880   6.570   0.351   1.136  0.0993 -0.0408  0.0796
 3777PP      PP13881   2.103   1.830  12.587 -0.0677 -0.3288 -0.1816
 3778PP      PP13882   1.962   9.841   8.898  0.3405 -0.0405 -0.0595
 3779PP      PP13883   0.822   8.871  11.522  0.1891 -0.0276 -0.1603
 3780PP      PP13884   0.153   9.238   2.078  0.1142 -0.0008 -0.1695
 3781PP      PP13885   0.478   2.964   2.800  0.2685  0.2401 -0.1115
 3782PP      PP13886  10.053   0.677   3.448 -0.0919 -0.2812  0.3553
 3783PP      PP13887   4.776  10.840  10.767 -0.2028 -0.0128 -0.2566
 3784PP      PP13888   5.376   0.760   0.891  0.1480  0.1205  0.5359
 3785PP      PP13889   5.913   8.013  11.352  0.0887  0.0547 -0.1542
 3786PP      PP13890   2.529   3.559  11.660 -0.0464 -0.0641 -0.0888
 3787PP      PP13891   2.126  13.547   9.478 -0.0938  0.0726 -0.3402
 3788PP      PP13892   1.204   2.863  12.551 -0.0194  0.1694 -0.0394
 3789PP      PP13893  15.402  12.621   3.596 -0.0224 -0.0602  0.0537
 3790PP      PP13894   6.180   4.731  10.544  0.0846 -0.0834 -0.2804
 3791PP      PP13895  10.612  10.503  10.820 -0.1821  0.1762  0.0334
 3792PP      PP13896   2.268   3.842  12.657 -0.0931  0.1372  0.1485
 3793PP      PP13897  11.835   2.301  11.475 -0.1700 -0.0027 -0.0748
 3794PP      PP13898   5.310   2.330   1.954 -0.1795  0.0798  0.0165
 3795PP      PP13899   5.538  15.111   4.712  0.0304  0.0403  0.1694
 3796PP      PP13900  11.136   7.610   2.016  0.4832  0.2823  0.0959
 3797PP      PP13901  10.808  12.575   1.365 -0.2909  0.2215 -0.3059
 3798PP      PP13902   6.326   6.971   9.876 -0.0662 -0.1276 -0.1989
 3799PP      PP13903   1.497  12.026  12.467 -0.2183  0.1073 -0.2080
 3800PP      PP13904  14.911   6.904  10.736  0.1301 -0.1394 -0.2440
 3801PP      PP13905   1.989   1.118   4.316 -0.0511  0.1404  0.1039
 3802PP      PP13906   5.969   6.650   3.930 -0.0372 -0.1115 -0.4872
 3803PP      PP13907  10.484  14.344  11.465  0.0990 -0.1149  0.3407
 3804PP      PP13908  11.365  11.768   2.743 -0.1166  0.2558 -0.0748
 3805PP      PP13909  10.249   3.719   1.669 -0.2586  0.0315 -0.0602
 3806PP      PP13910   6.539   0.070   8.492  0.3339 -0.0272 -0.0225
 3807PP      PP13911   4.816  12.442  12.562  0.0756 -0.2036 -0.0405
 3808PP      PP13912   8.246   5.377   3.186  0.2395  0.2717 -0.0397
 3809PP      PP13913  12.038  14.573  10.810 -0.5426 -0.1723 -0.0060
 3810PP      PP13914   7.160   8.539  11.002  0.1852 -0.0030  0.1162
 3811PP      PP13915   8.026  15.631   4.649 -0.2346  0.0478 -0.0882
 3812PP      PP13916   6.948   9.439  11.184  0.1006  0.0381 -0.3266
 3813PP      PP13917   3.951   9.926  11.407 -0.1358 -0.1741  0.0591
 3814PP      PP13918   9.829  14.160  12.277  0.1054  0.1641 -0.1114
 3815PP      PP13919   5.569   2.136   1.550  0.0044 -0.0110 -0.1930
 3816PP      PP13920  10.747   8.740   9.977 -0.0526 -0.2068  0.1368
 3817PP      PP13921   1.668   1.453   2.857  0.1058  0.0846  0.0027
 3818PP      PP13922   0.489   8.800   2.254 -0.0875  0.0822  0.0693
 3819PP      PP13923   3.457   3.049  10.686  0.0324 -0.1164  0.0118
 3820PP      PP13924   5.594   7.417   2.560  0.2219 -0.2129  0.1028
 3821PP      PP13925   6.159   8.892  11.981 -0.3479  0.1935  0.0848
 3822PP      PP13926   0.885   1.100   1.603 -0.1286 -0.1730 -0.3367
 3823PP      PP13927   5.480  10.981   0.089 -0.0625 -0.2528  0.0870
 3824PP      PP13928  10.156  11.641  10.161 -0.2725  0.0354  0.0314
 3825PP      PP13929   6.589  15.174   4.126  0.0306  0.1734  0.0656
 3826PP      PP13930  11.769  13.077  11.399 -0.1732  0.0235 -0.1121
 3827PP      PP13931   5.979   5.773   3.397  0.1451 -0.0176  0.0061
 3828PP      PP13932   6.583  14.589   0.098 -0.5293 -0.0573  0.1610
 3829PP      PP13933   1.548  10.989   0.335  0.1907  0.3113  0.2354
 3830PP      PP13934   1.685   9.183   1.654  0.1789  0.1772  0.1015
 3831PP      PP13935   8.667   7.559   4.405  0.1213  0.1575 -0.0375
 3832PP      PP13936   5.648   8.976  12.046  0.2697 -0.0087  0.1123
 3833PP      PP13937   9.919  12.486   3.830  0.3181  0.3943  0.0528
 3834PP      PP13938   8.590  12.760   0.827  0.2313 -0.2384 -0.1471
 3835PP      PP13939  12.917   0.499  13.260  0.1354  0.3205  0.1705
 3836PP      PP13940  13.377  14.192  10.729 -0.0317 -0.3778 -0.1803
 3837PP      PP13941   4.844  13.317   3.998 -0.0500  0.0468 -0.1952
 3838PP      PP13942   2.780  14.994   9.250  0.0975  0.3796  0.0628
 3839PP      PP13943   2.291   7.327   0.505 -0.2809 -0.3244 -0.1561
 3840PP      PP13944  14.617   3.934   3.371  0.3133 -0.1143 -0.2638
 3841PP      PP13945   5.696  14.131   2.781 -0.3154  0.0785 -0.0645
 3842PP      PP13946   3.058   9.399  10.429 -0.1478 -0.0009 -0.2426
 3843PP      PP13947   2.878  10.761   0.096  0.0101  0.1560 -0.1522
 3844PP      PP13948   3.396   8.529   8.607 -0.0269 -0.0080 -0.1465
 3845PP      PP13949   9.158  13.945   1.524  0.0398 -0.0394 -0.0826
 3846PP      PP13950   0.211   6.804   1.790  0.0872  0.3520  0.1832
 3847PP      PP13951   1.062   6.733  12.940  0.2830  0.1221 -0.2566
 3848PP      PP13952   6.759  10.435   3.610  0.2238  0.1113  0.3810
 3849PP      PP13953   4.961  14.451   3.497 -0.0437 -0.1278  0.0569
 3850PP      PP13954   5.962   9.244   3.590  0.0390 -0.1054 -0.0956
 3851PP      PP13955  10.928   4.971  12.078 -0.2711 -0.0070  0.2742
 3852PP      PP13956   7.095  15.534   1.443 -0.0128  0.2272 -0.0579
 3853PP      PP13957  14.918   8.251   8.350 -0.1089  0.1745  0.2134
 3854PP      PP13958   4.809  14.173   1.071 -0.1186 -0.0036 -0.2460
 3855PP      PP13959  10.442  13.289   4.322  0.2387 -0.1276  0.2602
 3856PP      PP13960   1.112  11.020   2.952  0.0154  0.3618 -0.1023
 3857PP      PP13961   2.700  14.785  13.317  0.0524  0.4569 -0.3855
 3858PP      PP13962  12.253   9.685  12.949 -0.0458  0.0737 -0.4347
 3859PP      PP13963  15.572   1.315   9.346  0.0494  0.1063  0.0480
 3860PP      PP13964   5.857  13.376   1.087  0.0858  0.1679 -0.2833
 3861PP      PP13965   3.830   5.528   1.034 -0.0005  0.1514  0.4005
 3862PP      PP13966   3.963  12.966   0.312 -0.0457  0.2639  0.1623
 3863PP      PP13967   4.041   2.903   0.167 -0.1074  0.0656  0.1407
 3864PP      PP13968   8.628  15.235   1.702  0.1411 -0.1665 -0.0028
 3865PP      PP13969  13.610  10.701  13.294  0.0732 -0.3442  0.0778
 3866PP      PP13970  12.911   7.941   0.297  0.1065 -0.2626 -0.2137
 3867PP      PP13971  14.489  14.558   3.405 -0.5219  0.1181 -0.1225
 3868PP      PP13972   9.676   0.860  10.836  0.0661 -0.0796 -0.0899
 3869PP      PP13973   8.064   0.820   0.787 -0.5118 -0.1293  0.4025
 3870PP      PP13974   1.334  14.805  11.513  0.0364 -0.0032  0.1010
 3871PP      PP13975   8.245  14.262   9.538  0.1167  0.1290 -0.0777
 3872PP      PP13976  14.536   0.869  12.079 -0.0328 -0.1291  0.1695
 3873PP      PP13977  12.314   9.613   4.399  0.2669  0.1265 -0.0856
 3874PP      PP13978  12.313   5.949   9.502  0.0335 -0.0548 -0.0210
 3875PP      PP13979  14.850   0.262  10.230 -0.1612 -0.1562  0.3510
 3876PP      PP13980   9.724   6.971   9.957 -0.1353 -0.0619 -0.0320
 3877PP      PP13981   2.255  14.234   9.569 -0.0867 -0.1508 -0.0595
 3878PP      PP13982   6.523   9.743  13.402 -0.0427 -0.1790 -0.0006
 3879PP      PP13983   4.906  13.250   2.064  0.0266 -0.0011  0.1799
 3880PP      PP13984   2.402   2.285   1.288 -0.0329  0.1769 -0.2077
 3881PP      PP13985  12.983   5.113  12.591 -0.2180 -0.2159 -0.0881
 3882PP      PP13986   3.809  10.737  10.827  0.0416 -0.1211 -0.1395
 3883PP      PP13987   5.320  10.353   4.763 -0.1976 -0.0629 -0.0822
 3884PP      PP13988   0.487   0.649   0.859 -0.2428  0.0356  0.2704
 3885PP      PP13989   2.533   5.897   9.390  0.2480 -0.1831  0.0293
 3886PP      PP13990  12.464  10.000  11.577  0.2945 -0.1276  0.1364
 3887PP      PP13991   6.776   0.547   9.919  0.2559  0.4734  0.1081
 3888PP      PP13992   4.874  14.036  13.191 -0.0765 -0.3116 -0.5351
 3889PP      PP13993   8.259  12.420  12.852 -0.4776 -0.1198 -0.1344
 3890PP      PP13994   3.865  15.546   2.171  0.2151 -0.4138  0.1641
 3891PP      PP13995   2.937  11.028  11.893  0.2399 -0.1229  0.0344
 3892PP      PP13996   8.290   8.686  12.261  0.2292  0.0522 -0.0153
 3893PP      PP13997   2.873  13.862  12.960 -0.1412 -0.2023  0.1195
 3894PP      PP13998   7.488  10.614   0.753 -0.0111 -0.0145  0.2448
 3895PP      PP13999   4.986  12.864   1.621  0.0364 -0.1552  0.0497
 3896PP      PP14000  15.704   9.337  12.849 -0.1691  0.0144  0.0569
 3897PP      PP14001  15.860   5.324  10.571  0.1710 -0.1430 -0.1366
 3898PP      PP14002   7.998  15.819   1.240 -0.1682 -0.1936 -0.0639
 3899PP      PP14003  12.136   7.101   8.843  0.1823  0.5476  0.0600
 3900PP      PP14004  13.039   5.562  13.002 -0.0137 -0.0689  0.2947
 3901PP      PP14005  13.122   5.944   0.543  0.0228  0.0071 -0.1324
 3902PP      PP14006   1.745   2.183   9.070  0.2682  0.2411  0.0687
 3903PP      PP14007  14.297   9.819  12.560 -0.3296 -0.1054 -0.0321
 3904PP      PP14008  11.273  13.244   2.789  0.1802  0.0601  0.1741
 3905PP      PP14009   2.978  11.052   2.163 -0.1280 -0.0551 -0.0306
 3906PP      PP14010  11.414  15.867   3.037  0.0950 -0.3435  0.1495
 3907PP      PP14011  10.641   8.935  12.674 -0.0693 -0.2107  0.2036
 3908PP      PP14012   1.140   9.810  10.874 -0.0561 -0.3154 -0.0774
 3909PP      PP14013   6.378   7.581   9.007 -0.2387  0.0779  0.2468
 3910PP      PP14014  10.659   2.485   0.655 -0.1056 -0.5305 -0.2823
 3911PP      PP14015   4.370   4.686   8.826 -0.0500 -0.2664  0.0773
 3912PP      PP14016  13.371   4.529   3.115 -0.1378  0.2382 -0.1362
 3913PP      PP14017  12.279   7.253   8.349 -0.3380  0.0303  0.1492
 3914PP      PP14018  15.261   7.928  11.376 -0.0521  0.0477  0.0591
 3915PP      PP14019   7.739   2.455   0.309  0.1810 -0.1864 -0.1944
 3916PP      PP14020   2.604   7.496   0.088 -0.0400  0.2122  0.1270
 3917PP      PP14021   1.593  11.396  11.862  0.1399 -0.0283 -0.0955
 3918PP      PP14022   7.205   4.184  11.930  0.1720  0.3798  0.1209
 3919PP      PP14023  10.228   9.202  10.105 -0.1307 -0.0878 -0.2258
 3920PP      PP14024   2.461  13.271   1.961  0.0162  0.1049 -0.0148
 3921PP      PP14025  10.886  12.035   2.427 -0.4395  0.2096 -0.0535
 3922PP      PP14026   1.548  15.755  10.855  0.0268 -0.0867 -0.0312
 3923PP      PP14027   5.817   3.007   4.339 -0.1384 -0.0599 -0.2259
 3924PP      PP14028   1.947   4.113   3.469  0.1847 -0.5044 -0.0318
 3925PP      PP14029   3.742  10.975  12.708 -0.2900  0.0674  0.0681
 3926PP      PP14030  15.062   4.932   0.354 -0.2079 -0.0926  0.3243
 3927PP      PP14031  13.116   7.866   3.151  0.0561 -0.5521  0.0760
 3928PP      PP14032   0.238   4.493   0.288  0.2192 -0.2294 -0.0464
 3929PP      PP14033   9.716   2.599   1.623 -0.1952  0.0932  0.2309
 3930PP      PP14034   7.262  12.710   9.213 -0.0194  0.2137 -0.0289
 3931PP      PP14035   5.828  11.676   1.785 -0.2155 -0.0246 -0.0960
 3932PP      PP14036   7.115  10.897   3.585 -0.0625  0.1164 -0.0872
 3933PP      PP14037  13.892   6.817  12.644 -0.1336 -0.1700 -0.0753
 3934PP      PP14038  13.515   3.934   2.486 -0.4566  0.0828 -0.2420
 3935PP      PP14039  12.826   0.595   0.845 -0.0888  0.1263 -0.0752
 3936PP      PP14040  13.544  12.292  12.716 -0.0482 -0.0074 -0.0643
 3937PP      PP14041  12.099  15.362  13.233  0.0154 -0.0060  0.0970
 3938PP      PP14042   7.114  14.376   9.083  0.0495  0.0691  0.0398
 3939PP      PP14043   6.816   4.654   0.862 -0.1103 -0.1084  0.1603
 3940PP      PP14044   0.216   4.640  10.034  0.0470 -0.0005  0.0637
 3941PP      PP14045  15.614  13.636  10.182 -0.1051 -0.1830 -0.0286
 3942PP      PP14046   2.725   2.797  10.548  0.1207  0.3669  0.1567
 3943PP      PP14047  13.876  15.877  10.955 -0.1135 -0.0975  0.2759
 3944PP      PP14048  13.688   6.253   1.325  0.1138  0.4562  0.0502
 3945PP      PP14049   1.784  10.709   4.647  0.2390  0.3162 -0.0962
 3946PP      PP14050   9.424  11.597   3.449  0.0642  0.0918  0.3279
 3947PP      PP14051   5.291   0.055   1.480  0.3673  0.1466 -0.2961
 3948PP      PP14052   3.642   5.245   1.456 -0.3213 -0.2174 -0.0536
 3949PP      PP14053  13.522   1.533  10.595 -0.1376  0.2882  0.4126
 3950PP      PP14054   6.754  14.762   8.767 -0.1316  0.0864 -0.2118
 3951PP      PP14055  11.462  11.899   0.142 -0.0743  0.3401  0.3046
 3952PP      PP14056   7.189  11.998  11.783  0.0293 -0.2818 -0.3607
 3953PP      PP14057   9.789  14.459   3.563  0.4668  0.1700 -0.0511
 3954PP      PP14058   1.441   0.294  12.674  0.1334  0.1746 -0.2808
 3955PP      PP14059  14.419  11.129   0.095 -0.1365  0.1366  0.1187
 3956PP      PP14060   7.463  15.781  12.267 -0.4597 -0.1198 -0.0881
 3957PP      PP14061   8.940   3.623  10.558 -0.0172  0.4277 -0.0418
 3958PP      PP14062   1.214   5.803   3.353  0.0751  0.2379  0.0744
 3959PP      PP14063   9.928  10.381  10.537  0.2272  0.0553  0.0879
 3960PP      PP14064   1.089   7.420  10.489 -0.1398  0.0786  0.1771
 3961PP      PP14065   7.774  14.882  10.180 -0.0293 -0.2307  0.1322
 3962PP      PP14066  12.690   2.494   9.141  0.0066 -0.1780  0.1838
 3963PP      PP14067  15.457   3.688   2.267 -0.0188  0.1324 -0.0317
 3964PP      PP14068   7.455  15.309  11.562  0.4545  0.3217 -0.1694
 3965PP      PP14069   9.706  13.301  10.805  0.0801  0.3015 -0.0041
 3966PP      PP14070  15.728   8.279  12.287 -0.0405  0.1763 -0.1345
 3967PP      PP14071   5.019   7.289  10.672 -0.0193  0.1297 -0.1617
 3968PP      PP14072  15.578   7.057   1.980  0.1199  0.2160  0.2150
 3969PP      PP14073   6.081   9.780   0.570  0.1817 -0.1155 -0.0067
 3970PP      PP14074   8.844  11.339  12.378  0.0014  0.1412 -0.1107
 3971PP      PP14075   5.986  15.406   4.849 -0.1482 -0.1723  0.1434
 3972PP      PP14076   3.450  13.609   1.284 -0.3439 -0.0364 -0.1541
 3973PP      PP14077   1.490   8.208   2.644 -0.1153  0.5878 -0.2074
 3974PP      PP14078  15.858  15.434  13.409  0.1522  0.0195 -0.0166
 3975PP      PP14079   7.865  11.333  11.872  0.2723  0.3512  0.0329
 3976PP      PP14080  10.729   0.114   2.183  0.3165  0.0637 -0.2313
 3977PP      PP14081   7.429   3.909   9.619 -0.1598  0.2010 -0.0587
 3978PP      PP14082   3.943  14.549   1.106  0.2910 -0.0964 -0.1290
 3979PP      PP14083  13.252  10.199   0.971  0.0120  0.0898 -0.0479
 3980PP      PP14084  13.611  15.113   1.373 -0.1535 -0.0373 -0.1719
 3981PP      PP14085  11.022   4.045  10.733  0.3787 -0.2219 -0.0251
 3982PP      PP14086   0.218   1.380  11.302  0.0985 -0.0817 -0.0608
 3983PP      PP14087   3.569  15.570  12.838 -0.2203 -0.2149  0.3739
 3984PP      PP14088   9.869  11.793  10.640 -0.0037  0.4779 -0.2172
 3985PP      PP14089  13.308   4.112   3.543 -0.1342  0.2843 -0.0011
 3986PP      PP14090  13.827   1.305   1.057  0.1217 -0.4290  0.0780
 3987PP      PP14091   2.580  12.675   3.632  0.6115  0.1888 -0.2336
 3988PP      PP14092  14.156  12.288  12.537  0.0311  0.3316  0.0867
 3989PP      PP14093   3.864   6.773   3.876 -0.0457  0.0458  0.0800
 3990PP      PP14094  14.010  10.602   1.084  0.1677 -0.3587  0.0412
 3991PP      PP14095  15.840  10.344  13.225  0.0114  0.0107  0.1303
 3992PP      PP14096   6.670  10.130   8.633 -0.2404 -0.0018 -0.2066
 3993PP      PP14097   3.181   8.344   3.059  0.1869  0.3694 -0.0062
 3994PP      PP14098   5.057   8.938   1.629 -0.2926  0.3428 -0.3265
 3995PP      PP14099   0.980  12.442   8.924 -0.2458 -0.0508  0.1950
 3996PP      PP14100  10.565   8.069   1.198 -0.1017 -0.1877 -0.3468
 3997PP      PP14101  13.361   5.914  12.770 -0.1722 -0.3076 -0.1221
 3998PP      PP14102   8.378   1.101   2.703 -0.1298  0.0274 -0.0413
 3999PP      PP14103  11.998   5.719  12.668 -0.1787 -0.1182 -0.3154
 4000PP      PP14104  15.402   7.551   1.925 -0.0763  0.1565  0.0334
 4001PP      PP14105  14.939  11.461   3.086  0.2004 -0.0516  0.3781
 4002PP      PP14106   2.265   6.819   3.274  0.1183  0.2293 -0.0536
 4003PP      PP14107  12.258   1.758  13.138  0.0208 -0.2754 -0.3739
 4004PP      PP14108   1.356   2.719   4.319 -0.0082 -0.4103  0.3595
 4005PP      PP14109   4.248  12.586   4.195 -0.0825 -0.3163 -0.1084
 4006PP      PP14110   4.495  14.465   3.313  0.1074  0.0592  0.4067
 4007PP      PP14111   8.277   6.840   8.593 -0.1265  0.3344  0.0113
 4008PP      PP14112   6.720   5.666  13.230  0.3559 -0.2826 -0.0596
 4009PP      PP14113  13.392  14.256   4.014  0.0612  0.2014 -0.1916
 4010PP      PP14114  12.990   9.661   0.385 -0.1627 -0.1160 -0.1193
 4011PP      PP14115  10.654   6.722   0.504  0.2775  0.1807  0.1295
 4012PP      PP14116   4.367  15.019   3.134 -0.2251  0.0114 -0.0350
 4013PP      PP14117   2.907  14.151   3.580 -0.1003 -0.0284  0.3131
 4014PP      PP14118   7.368   5.549  12.266  0.2554 -0.0276 -0.0088
 4015PP      PP14119  10.509  10.660   0.974 -0.2250  0.0731  0.2925
 4016PP      PP14120   8.712   7.622   3.746 -0.2172 -0.2966 -0.2010
 4017PP      PP14121   2.234   4.461   2.299  0.2207  0.0290  0.2071
 4018PP      PP14122  15.374  13.049  13.466 -0.1369 -0.0943 -0.0428
 4019PP      PP14123   2.577   3.231  10.328  0.2876  0.1677 -0.2399
 4020PP      PP14124   1.617  12.382   9.962 -0.0201 -0.1398 -0.1314
 4021PP      PP14125   5.090  14.431   0.459 -0.1952  0.0609 -0.0410
 4022PP      PP14126   3.929  15.784   9.481  0.1147 -0.2180  0.2490
 4023PP      PP14127  15.590   7.178   0.978  0.2784  0.0873  0.0242
 4024PP      PP14128  10.092   2.760  11.517 -0.0540 -0.6343  0.0583
 4025PP      PP14129  13.935   2.463   0.259 -0.1141 -0.1266 -0.0251
 4026PP      PP14130   7.639   2.024  10.586  0.0503  0.1457  0.0369
 4027PP      PP14131   3.568   9.592   8.681  0.2501  0.0093  0.4139
 4028PP      PP14132  12.924   4.131  12.165 -0.1525  0.3958 -0.2584
 4029PP      PP14133   4.672  15.464   3.201 -0.0976 -0.3711 -0.1877
 4030PP      PP14134   6.661   5.076  10.591 -0.2846  0.1764  0.5244
 4031PP      PP14135  13.908   2.251  12.067  0.0520  0.1834  0.2694
 4032PP      PP14136   3.133   2.060   0.358 -0.2314  0.0156  0.1848
 4033PP      PP14137   0.896  13.854   3.360  0.0068 -0.1411 -0.2247
 4034PP      PP14138   6.050   7.118  11.426  0.1090  0.1069  0.1133
 4035PP      PP14139   8.977  12.632   9.538 -0.0808  0.0519 -0.0246
 4036PP      PP14140   1.237  13.508   8.803 -0.1881  0.5622 -0.0362
 4037PP      PP14141   1.529  14.028  10.778  0.0383  0.2880 -0.1390
 4038PP      PP14142  10.723  11.344  11.597  0.1712 -0.1594  0.0500
 4039PP      PP14143  14.173  13.686  12.143 -0.0601 -0.2761  0.0772
 4040PP      PP14144  10.663  15.191   1.176 -0.2151  0.2175  0.0833
 4041PP      PP14145  10.154   6.315   9.879 -0.0288 -0.1947 -0.0609
 4042PP      PP14146   6.771   2.159   4.102  0.0732  0.0841 -0.1169
 4043PP      PP14147  14.593   2.768  12.656  0.1332 -0.1298  0.1819
 4044PP      PP14148   9.890   3.170   3.559 -0.0208  0.1465  0.1861
 4045PP      PP14149   0.702  11.361   0.606 -0.1136  0.0217 -0.0617
 4046PP      PP14150  14.393  11.455   4.357 -0.2287 -0.0044 -0.1998
 4047PP      PP14151   1.178  15.382   1.640 -0.0461  0.0311  0.0558
 4048PP      PP14152   5.734  12.997   2.318  0.3848  0.2900 -0.2120
 4049PP      PP14153  12.512   8.847  10.320 -0.3103 -0.1687  0.0330
 4050PP      PP14154  15.884   8.892   2.414  0.2783 -0.1436 -0.1812
 4051PP      PP14155  13.815   2.341  12.663 -0.0368 -0.1663 -0.0070
 4052PP      PP14156  10.658   7.315   0.658 -0.2293  0.1522  0.3227
 4053PP      PP14157   6.872   7.890   9.023  0.0977  0.0938 -0.1760
 4054PP      PP14158  12.820  11.760  10.369  0.0579 -0.1109  0.0309
 4055PP      PP14159   8.478   1.672   3.719 -0.1144  0.2457  0.2745
 4056PP      PP14160   1.498  11.730  10.764  0.1426 -0.0072  0.1302
 4057PP      PP14161   0.912   2.081   2.924 -0.0338  0.4807  0.1221
 4058PP      PP14162  14.949  15.714   2.368  0.0627 -0.1058 -0.0164
 4059PP      PP14163   3.618  12.898   0.643 -0.0422 -0.1377 -0.0183
 4060PP      PP14164  11.517   2.875   0.039 -0.1106  0.2676 -0.2205
 4061PP      PP14165  13.080   6.619   2.194 -0.0129 -0.0811  0.0890
 4062PP      PP14166   0.118  12.584  10.549  0.2143 -0.0486  0.0581
 4063PP      PP14167  13.235   2.947  11.732 -0.1331  0.2749  0.3885
 4064PP      PP14168   9.154   2.303  10.091 -0.2021 -0.2197  0.1258
 4065PP      PP14169  11.386   9.857  11.999 -0.3815  0.0408 -0.0207
 4066PP      PP14170   9.858  14.772  10.585 -0.1189 -0.1742  0.1094
 4067PP      PP14171   6.636  15.669   0.377 -0.3814 -0.2060  0.0409
 4068PP      PP14172  15.855   6.267  10.923  0.2712  0.0302  0.0130
 4069PP      PP14173  14.219   1.254  13.442 -0.4301 -0.0515  0.1766
 4070PP      PP14174  10.657  11.455  10.928  0.3978  0.0324 -0.0948
 4071PP      PP14175  10.718  11.127  12.133  0.0907  0.1890 -0.1470
 4072PP      PP14176   3.208   0.795  10.553 -0.1716 -0.1807  0.0685
 4073PP      PP14177   9.252  12.379   9.239  0.2482  0.1104 -0.2984
 4074PP      PP14178   4.890   3.358   0.782  0.0382  0.2055  0.1096
 4075PP      PP14179   1.008   7.253  12.861 -0.0685 -0.2874 -0.3386
 4076PP      PP14180  11.659   4.950   9.643  0.0013 -0.1319  0.1745
 4077PP      PP14181  12.273   2.211  12.341  0.1683 -0.0525  0.3329
 4078PP      PP14182  11.566   4.216   2.649 -0.3081  0.0050  0.2551
 4079PP      PP14183   0.277  11.362   0.396  0.1578 -0.1400 -0.1014
 4080PP      PP14184   2.845  14.726   1.119 -0.0660  0.3566  0.1224
 4081PP      PP14185   3.346   3.295  13.230  0.1172  0.0421 -0.2659
 4082PP      PP14186   5.308  13.339  10.724 -0.1659  0.2178  0.1147
 4083PP      PP14187   2.716   9.142   4.414 -0.1456  0.2671 -0.1917
 4084PP      PP14188  10.980   4.814   2.445  0.1810 -0.2759  0.1975
 4085PP      PP14189   5.256  15.864   0.348  0.3052 -0.1747 -0.1773
 4086PP      PP14190   0.676   5.656   2.050  0.1449 -0.1884  0.0047
 4087PP      PP14191   8.544   7.069  10.627 -0.0339 -0.1388 -0.1938
 4088PP      PP14192  10.714  12.575  10.667  0.1586 -0.1633  0.0106
 4089PP      PP14193  12.446   2.277   0.269  0.0915 -0.1451  0.1874
 4090PP      PP14194   2.365   8.914  11.086 -0.0614 -0.0737  0.0409
 4091PP      PP14195   5.475  15.254   4.225 -0.2796 -0.0056  0.0503
 4092PP      PP14196  14.424   0.099  10.659 -0.0357  0.0675 -0.1898
 4093PP      PP14197  11.662  14.035  11.277 -0.2255  0.1486  0.0515
 4094PP      PP14198  14.572   5.690   8.678  0.0562 -0.0624  0.0439
 4095PP      PP14199  12.088   3.067   0.091 -0.0115 -0.1046  0.0219
 4096PP      PP14200  12.914   2.174   0.447 -0.1023  0.0916 -0.0643
 4097PP      PP14201  15.520   3.745  12.864  0.1122  0.1155 -0.2254
 4098PP      PP14202   2.532   4.232   3.636 -0.2078  0.0789  0.1353
 4099PP      PP14203  12.880   1.258  10.209  0.1430 -0.1442  0.1102
 4100PP      PP14204   9.884  12.740   2.869 -0.2363 -0.1441 -0.1410
 4101PP      PP14205   9.112  12.534  11.559  0.2892 -0.0025 -0.0722
 4102PP      PP14206   0.438   6.795   2.815 -0.3783  0.0425  0.4755
 4103PP      PP14207  13.550   7.689   8.509  0.0361 -0.2109 -0.0832
 4104PP      PP14208   0.769  11.368  11.643 -0.1965 -0.2669 -0.0947
 4105PP      PP14209   7.298   2.391  12.158 -0.0356  0.1555  0.1620
 4106PP      PP14210   7.042   2.893  13.389  0.1548  0.1815 -0.2098
 4107PP      PP14211   5.646  12.411   3.799 -0.0486  0.0327  0.0556
 4108PP      PP14212   8.044   7.859   9.590 -0.0479 -0.2680  0.1281
 4109PP      PP14213  13.605   3.264   2.605  0.3417 -0.0774 -0.0825
 4110PP      PP14214  15.775   4.260   0.568  0.2053  0.1585  0.1768
 4111PP      PP14215   1.468  15.597   9.399 -0.1538 -0.1756 -0.2057
 4112PP      PP14216   2.504  15.806  12.498 -0.0035  0.1214  0.1168
 4113PP      PP14217  13.525   5.452   8.667  0.0703 -0.2281  0.2176
 4114PP      PP14218   9.153   5.408  13.475  0.0381  0.2641 -0.1844
 4115PP      PP14219   8.951  12.575   1.812 -0.1432  0.1170 -0.0865
 4116PP      PP14220   2.376   5.522   3.509 -0.2678 -0.0309  0.2539
 4117PP      PP14221   2.815  10.180   3.419 -0.0360  0.0624  0.0159
 4118PP      PP14222   6.047  13.203  11.691  0.0873 -0.0518  0.0014
 4119PP      PP14223  14.445   9.990  10.230 -0.0341 -0.0550  0.0882
 4120PP      PP14224   1.147   3.716  11.642 -0.2475  0.1138  0.0617
 4121PP      PP14225  10.584   8.676   2.516 -0.2390  0.1315 -0.0329
 4122PP      PP14226   5.170  14.121   9.573 -0.2739  0.0434  0.0060
 4123PP      PP14227   0.143   4.053   3.528  0.2214  0.1840 -0.1184
 4124PP      PP14228   8.659   4.394  11.600 -0.1622 -0.1406 -0.0482
 4125PP      PP14229  11.340  10.661  13.330  0.2133 -0.0234  0.1929
 4126PP      PP14230  13.579  12.689   9.253  0.2605  0.2819 -0.1275
 4127PP      PP14231   2.197  12.556   9.742  0.2622 -0.1898  0.3400
 4128PP      PP14232   7.172   5.338  10.298 -0.1028  0.5052  0.0936
 4129PP      PP14233  14.198  12.438   4.623 -0.0889  0.1085  0.0078
 4130PP      PP14234  12.737  15.531  11.737 -0.2621  0.0954  0.1905
 4131PP      PP14235   2.855   6.416  11.996  0.1375  0.0210  0.0122
 4132PP      PP14236   8.519   5.780  12.548 -0.1037 -0.3363 -0.0136
 4133PP      PP14237  13.811   2.374   0.750  0.1311  0.0443  0.0660
 4134PP      PP14238   0.272   2.331   2.419 -0.2285 -0.1940  0.2799
 4135PP      PP14239   0.224   6.453   8.980 -0.3071 -0.0505 -0.0069
 4136PP      PP14240   5.976   0.405   2.594 -0.1612 -0.0763 -0.1013
 4137PP      PP14241   6.703  14.537   2.037 -0.0328  0.1676 -0.1193
 4138PP      PP14242  12.302  12.288  11.412  0.0133  0.0018  0.2874
 4139PP      PP14243   3.346  14.969   1.807 -0.4155 -0.1099  0.0511
 4140PP      PP14244   2.403  15.462   9.340  0.1921 -0.1538  0.0290
 4141PP      PP14245  11.976  10.725  10.645 -0.0212 -0.1173  0.3694
 4142PP      PP14246  14.308   8.059  12.353  0.0129 -0.1413 -0.2495
 4143PP      PP14247  11.507   1.788   3.422 -0.0980 -0.1968 -0.1789
 4144PP      PP14248   0.561  10.428   0.754 -0.3633  0.0568  0.1713
 4145PP      PP14249   0.008   9.061   0.793 -0.1435  0.2139 -0.6537
 4146PP      PP14250   0.533  11.071   1.258 -0.0400 -0.1802 -0.1327
 4147PP      PP14251   9.050   0.830  10.086 -0.2962 -0.1087  0.2068
 4148PP      PP14252   2.475   3.368  12.695 -0.0673  0.1212  0.0132
 4149PP      PP14253   2.403  15.791   0.208 -0.1647  0.3113  0.0960
 4150PP      PP14254   3.203   5.616   2.353 -0.1577 -0.0759 -0.1178
 4151PP      PP14255   5.261  14.481   1.427 -0.0317  0.0263  0.0095
 4152PP      PP14256  11.528   9.962   2.845  0.2102  0.0239 -0.3274
 4153PP      PP14257   9.217  12.831  12.034  0.1507  0.0696 -0.3022
 4154PP      PP14258   5.710  14.495  12.930  0.0423 -0.1185 -0.0457
 4155PP      PP14259  15.003  14.336   9.207  0.0156 -0.5887  0.1034
 4156PP      PP14260   7.374   7.331   2.767 -0.0190  0.0641  0.0913
 4157PP      PP14261  10.498   8.493   3.731 -0.2349  0.1504  0.0054
 4158PP      PP14262   2.168  10.527   0.970  0.1249 -0.0760 -0.0743
 4159PP      PP14263   2.259   0.907  12.842  0.1082  0.0422  0.3565
 4160PP      PP14264  11.909   3.706  13.266 -0.0228  0.3859 -0.0194
 4161PP      PP14265   5.760   9.368  10.150 -0.0904 -0.1617 -0.3033
 4162PP      PP14266  12.409   9.554   2.918  0.2662  0.1006  0.2830
 4163PP      PP14267  14.256  12.012   9.542  0.1267  0.1810 -0.0404
 4164PP      PP14268   8.148  10.583   3.055  0.1691  0.1270 -0.0138
 4165PP      PP14269   6.953   5.131   4.214 -0.0410 -0.2929 -0.0509
 4166PP      PP14270   5.270   0.166  12.207 -0.2405  0.2490 -0.2283
 4167PP      PP14271   3.044  12.811   1.991  0.0096  0.0832 -0.1002
 4168PP      PP14272  10.896   1.167  12.821 -0.2584  0.1180  0.1192
 4169PP      PP14273   0.398   2.332   1.032  0.5387  0.0685 -0.0220
 4170PP      PP14274  13.979   1.362  10.749 -0.0620 -0.0723 -0.1507
 4171PP      PP14275   2.197   1.940   1.606 -0.0018 -0.2926  0.0340
 4172PP      PP14276   2.601  12.831   9.656 -0.5826  0.0855  0.3262
 4173PP      PP14277  14.694   7.145  11.879  0.1486 -0.0695 -0.0073
 4174PP      PP14278   2.732   9.345   3.132 -0.0064 -0.3390 -0.1105
 4175PP      PP14279  15.698  13.241   8.972  0.0342  0.2692  0.0653
 4176PP      PP14280   0.267  10.010   0.556 -0.1251 -0.2136 -0.1601
 4177PP      PP14281  13.422  11.387   1.793 -0.1937 -0.2852  0.0403
 4178PP      PP14282  10.671   6.141   3.098  0.1624  0.0831  0.0602
 4179PP      PP14283  14.575   1.043  13.117 -0.0578  0.0191  0.1867
 4180PP      PP14284   4.326   7.961   1.447 -0.1974 -0.3743 -0.0196
 4181PP      PP14285   9.300  13.117  12.498 -0.2048  0.2073 -0.2471
 4182PP      PP14286   8.170   0.050  13.079 -0.1522 -0.2126 -0.3583
 4183PP      PP14287  15.616   8.853   1.183  0.0977 -0.1376 -0.0655
 4184PP      PP14288   5.424  11.086   2.816  0.2336  0.1122 -0.1144
 4185PP      PP14289   5.972   7.580  10.516  0.1673 -0.0981 -0.0589
 4186PP      PP14290   3.745  10.060  13.188 -0.1857 -0.3804  0.2156
 4187PP      PP14291   1.799   7.935  10.532 -0.0445 -0.2804  0.1390
 4188PP      PP14292   3.205   6.755  10.957 -0.1522 -0.2172 -0.0884
 4189PP      PP14293   6.869   9.609   8.632  0.0353 -0.1764 -0.1738
 4190PP      PP14294   5.283   8.807   3.167 -0.3187  0.1185  0.1707
 4191PP      PP14295   1.987   6.436   3.206 -0.0004  0.3502  0.0332
 4192PP      PP14296   4.516   1.865   0.916 -0.3833 -0.0338  0.6437
 4193PP      PP14297  15.713  12.424   4.126 -0.1076 -0.0791  0.0716
 4194PP      PP14298   7.444   3.299   1.975 -0.3333  0.2503 -0.2445
 4195PP      PP14299   3.014   2.537   3.855  0.3263  0.1787 -0.1481
 4196PP      PP14300   3.115   0.243   1.752 -0.1737  0.0367  0.0521
 4197PP      PP14301   5.891  15.352  10.563 -0.1862 -0.1500 -0.4023
 4198PP      PP14302   9.401   5.825   0.227 -0.1877  0.2624 -0.1833
 4199PP      PP14303  14.831   4.152   2.966 -0.0847 -0.1064 -0.0947
 4200PP      PP14304  10.360  14.946  10.666 -0.1764  0.1266  0.2479
 4201PP      PP14305  13.320  11.320  11.739  0.1002  0.0726 -0.2408
 4202PP      PP14306   0.808  11.859   9.971  0.0012  0.0763  0.0637
 4203PP      PP14307   5.404   1.138   1.459 -0.0277 -0.1885  0.2433
 4204PP      PP14308   7.340  12.704   0.801  0.2482  0.0803 -0.0558
 4205PP      PP14309  12.420   7.502   1.009 -0.0919  0.1060 -0.2900
 4206PP      PP14310   2.163   5.612   0.931  0.0235  0.0902 -0.2810
 4207PP      PP14311  14.047  11.509  10.982  0.0893 -0.0215  0.0669
 4208PP      PP14312   9.059  12.726   4.522  0.2630 -0.1728 -0.1192
 4209PP      PP14313   4.866   6.860  12.783 -0.1222 -0.1922  0.2978
 4210PP      PP14314   6.382   9.791  10.772  0.1439 -0.1000 -0.2868
 4211PP      PP14315   9.119  12.348   3.327  0.2705  0.1907 -0.1631
 4212PP      PP14316  10.152   2.633   0.747 -0.0702 -0.3709 -0.2236
 4213PP      PP14317   5.023  12.262   1.905  0.0957  0.0159 -0.1863
 4214PP      PP14318  10.492   3.703   3.557 -0.0058 -0.3122 -0.1463
 4215PP      PP14319   7.802   3.072  10.067  0.1760  0.3913 -0.2756
 4216PP      PP14320   8.285  11.553   0.486 -0.0857 -0.1299 -0.2431
 4217PP      PP14321   7.804  10.184   3.039  0.4300 -0.0473  0.0967
 4218PP      PP14322   6.855   9.770  10.454  0.2323 -0.1837 -0.3079
 4219PP      PP14323   1.553   2.441   0.792 -0.0527  0.2774 -0.3728
 4220PP      PP14324  13.627   8.415   4.204 -0.1617 -0.1192 -0.3443
 4221PP      PP14325   2.362   5.961   0.433  0.1372  0.0623  0.0249
 4222PP      PP14326   4.827  13.018   2.504  0.1742  0.0342  0.2152
 4223PP      PP14327   4.406  12.623   1.069 -0.2385 -0.1203  0.0160
 4224PP      PP14328   6.707  14.862  10.130 -0.0559 -0.2157 -0.0699
 4225PP      PP14329   5.790  13.818  11.340  0.0956  0.0750  0.4316
 4226PP      PP14330   6.635  14.087   3.073  0.2231 -0.1998  0.1082
 4227PP      PP14331   7.618  15.130   2.954  0.0716  0.2054  0.0132
 4228PP      PP14332   1.533  14.070   0.096 -0.2160 -0.3308 -0.1512
 4229PP      PP14333  11.572  12.766  13.413 -0.4381  0.0639 -0.2709
 4230PP      PP14334   9.953  15.144   9.664  0.2190 -0.1226 -0.3092
 4231PP      PP14335   6.408  12.631   3.488  0.0533  0.1230 -0.0558
 4232PP      PP14336  15.827  10.384   9.139  0.1394  0.1473 -0.1002
 4233PP      PP14337   7.416   1.332  10.800  0.1901 -0.1209  0.5288
 4234PP      PP14338   7.500   3.480   9.915 -0.0451 -0.0911 -0.3327
 4235PP      PP14339   3.226   0.438  11.580 -0.0203 -0.2893 -0.0508
 4236PP      PP14340   1.239   6.276   2.576  0.1896  0.0281 -0.0443
 4237PP      PP14341  13.832   6.835   0.205 -0.0131 -0.0211 -0.0990
 4238PP      PP14342   6.384   5.313  12.762  0.3414  0.0357  0.1174
 4239PP      PP14343  15.715  10.499   2.296  0.2627 -0.0147  0.2822
 4240PP      PP14344  10.474   7.362   9.984  0.1234 -0.1871 -0.1329
 4241PP      PP14345  11.602  11.732  11.303 -0.0867  0.2798 -0.0844
 4242PP      PP14346   4.563   3.782   9.644  0.0337 -0.0668 -0.2234
 4243PP      PP14347  11.832   1.049  11.869 -0.0415 -0.0306  0.1385
 4244PP      PP14348   9.884   0.406   5.259  0.1175  0.3757 -0.1364
 4245PP      PP14349  12.688   5.998   2.780 -0.0923 -0.0516 -0.0438
 4246PP      PP14350   3.553   7.864   1.768  0.0788  0.3674  0.0359
 4247PP      PP14351   2.192   8.633   2.328 -0.0176 -0.0070 -0.2422
 4248PP      PP14352   7.805  14.724   4.450 -0.1745 -0.5790 -0.1561
 4249PP      PP14353   5.916   5.879   0.650 -0.3166 -0.1051 -0.1106
 4250PP      PP14354   2.552   7.495  12.308  0.0684 -0.0238 -0.1127
 4251PP      PP14355   4.193  13.761  10.370 -0.2095  0.0650  0.0054
 4252PP      PP14356   6.295   0.258   4.903  0.2143  0.4901 -0.2923
 4253PP      PP14357  13.233  11.371   8.542 -0.1190 -0.0114  0.2255
 4254PP      PP14358  15.012   4.312   4.050 -0.2756  0.3811  0.0563
 4255PP      PP14359   0.378   4.856   4.113 -0.1972 -0.1205  0.0103
 4256PP      PP14360   6.686   8.417  12.725 -0.0563  0.3841  0.0285
 4257PP      PP14361   4.737   0.707  10.378  0.2207 -0.1581  0.3401
 4258PP      PP14362  12.033  10.390  11.767  0.0866  0.1604  0.0488
 4259PP      PP14363   5.339   3.463   1.631  0.0467  0.0351 -0.1920
 4260PP      PP14364   8.963   4.155   3.222  0.0265  0.1695  0.1863
 4261PP      PP14365   7.880   6.257   2.982 -0.0551 -0.1671 -0.1745
 4262PP      PP14366  11.162   0.036   5.039  0.1315 -0.1567 -0.0238
 4263PP      PP14367   8.072  12.122   1.688 -0.1636  0.0264  0.0249
 4264PP      PP14368   8.991   2.112  13.468  0.0951 -0.0795  0.1380
 4265PP      PP14369  14.378   6.948  10.448  0.1649 -0.1227 -0.0618
 4266PP      PP14370   0.390  10.875   2.228 -0.1517 -0.0792  0.2227
 4267PP      PP14371  13.727  13.432   1.749 -0.0044  0.0936 -0.1478
 4268PP      PP14372  11.434  15.331   3.039 -0.0171 -0.1606  0.0995
 4269PP      PP14373  15.674   3.944   2.719  0.1936 -0.0122  0.0917
 4270PP      PP14374  11.924  14.947   0.443 -0.1519  0.4546 -0.2921
 4271PP      PP14375   0.707   0.868   3.926  0.0578  0.0236  0.1595
 4272PP      PP14376   1.105  11.876   1.176  0.0146 -0.1458  0.1191
 4273PP      PP14377   4.921   8.971   0.330  0.2468 -0.1427 -0.2719
 4274PP      PP14378   7.254   5.571  11.809  0.0129  0.1023  0.1959
 4275PP      PP14379   8.012  12.530   4.101 -0.2695  0.1038 -0.1001
 4276PP      PP14380  14.566   9.819  11.111  0.1017  0.0165 -0.0033
 4277PP      PP14381   2.679   8.467  11.223 -0.1822 -0.0807  0.1664
 4278PP      PP14382  13.113   3.102   9.633  0.3758 -0.1939  0.1272
 4279PP      PP14383   7.616  13.356   2.401 -0.1359 -0.2041  0.1903
 4280PP      PP14384  13.524   1.858  10.191 -0.0671  0.1920  0.0706
 4281PP      PP14385   2.153   7.946  10.037  0.1162 -0.2976 -0.4210
 4282PP      PP14386  13.800   7.570   2.579 -0.0537  0.1570  0.4152
 4283PP      PP14387  15.011   6.802   8.363  0.0638 -0.1455 -0.2111
 4284PP      PP14388   1.269  14.497  10.164  0.1512  0.1699 -0.0735
 4285PP      PP14389   4.129   5.969  12.441 -0.1121  0.1237 -0.3865
 4286PP      PP14390   8.061  14.183   2.503  0.0188 -0.1738  0.3916
 4287PP      PP14391   5.840   5.954   1.741  0.1067  0.1679 -0.3248
 4288PP      PP14392  13.279   2.036  10.986 -0.1975 -0.1406 -0.0275
 4289PP      PP14393  10.169   3.805  10.521  0.2875 -0.1203 -0.1845
 4290PP      PP14394   0.722  13.462   9.281  0.2030 -0.4188 -0.1107
 4291PP      PP14395   6.453  10.599  10.034  0.0381  0.1061 -0.1967
 4292PP      PP14396  14.249  13.537   9.746  0.0499 -0.1972  0.0093
 4293PP      PP14397  15.500  15.625   0.987 -0.2877 -0.0775  0.1406
 4294PP      PP14398  15.515   1.133   3.609  0.0850  0.1750 -0.2957
 4295PP      PP14399   4.428   8.145  11.415 -0.0796  0.2476 -0.0458
 4296PP      PP14400   6.650   4.103   0.108 -0.1532  0.1491 -0.0048
 4297PP      PP14401   4.539   5.260   0.342  0.0182 -0.2198 -0.0605
 4298PP      PP14402   5.781  14.665   3.144  0.1445 -0.2441 -0.0674
 4299PP      PP14403   1.264   0.155  12.190 -0.2957 -0.0159 -0.1480
 4300PP      PP14404   0.274  13.936  11.822 -0.1948  0.1577 -0.0510
 4301PP      PP14405  14.344   7.974   9.228 -0.0758 -0.2331  0.1880
 4302PP      PP14406   2.695   2.781   1.157 -0.1359  0.0539 -0.4822
 4303PP      PP14407   5.738   3.970  10.438 -0.1306 -0.3286  0.1099
 4304PP      PP14408   8.847  14.712  12.540  0.0307 -0.2792  0.4932
 4305PP      PP14409   7.417   7.723   9.422 -0.1996 -0.1036 -0.1474
 4306PP      PP14410   1.238   7.210   0.312  0.5473  0.0879 -0.1008
 4307PP      PP14411  13.582   9.121   9.795 -0.0779  0.3649  0.1707
 4308PP      PP14412  12.019   5.543  11.286 -0.0254  0.0223 -0.3692
 4309PP      PP14413   5.672  14.665  11.542 -0.0771  0.0687 -0.1610
 4310PP      PP14414   7.426   1.639  11.571 -0.0393  0.0694 -0.0181
 4311PP      PP14415   5.951  15.857  12.474  0.2286 -0.2037  0.0960
 4312PP      PP14416   3.143  15.854  10.640  0.0073 -0.0579  0.0913
 4313PP      PP14417  12.043   8.667   1.451 -0.1458  0.2604 -0.1816
 4314PP      PP14418   9.107   7.794   0.281  0.2924  0.1829  0.2646
 4315PP      PP14419   0.796   0.221   0.719  0.1041 -0.1035 -0.5333
 4316PP      PP14420   0.062  13.103   8.540  0.2931 -0.1317 -0.2192
 4317PP      PP14421  12.574  10.502  13.232  0.0084 -0.2587 -0.1247
 4318PP      PP14422   5.510  11.491  11.167  0.1154 -0.2181  0.0978
 4319PP      PP14423  12.945  13.959  10.433  0.2066  0.0105  0.0236
 4320PP      PP14424   9.372  14.344  12.377 -0.2203 -0.0868 -0.0522
 4321PP      PP14425   2.788   3.778   9.773 -0.2426 -0.2601 -0.1806
 4322PP      PP14426   4.894   3.389   3.986 -0.0248 -0.1678 -0.1727
 4323PP      PP14427   7.225   2.601   9.564 -0.2437 -0.0440 -0.3681
 4324PP      PP14428   9.003   9.480   8.719  0.3901 -0.2980  0.2305
 4325PP      PP14429   5.932   1.614  13.190 -0.0394  0.2320  0.4652
 4326PP      PP14430  11.329  10.625  12.741  0.1693 -0.1048 -0.0305
 4327PP      PP14431   6.568   8.165   2.723  0.1621  0.1786 -0.3560
 4328PP      PP14432   5.450   2.112  11.664  0.3063 -0.1600 -0.0203
 4329PP      PP14433   5.978   7.037   2.579 -0.1262 -0.2511 -0.1152
 4330PP      PP14434   9.472   8.230  12.466  0.0694 -0.1521  0.0021
 4331PP      PP14435   2.146   9.182   3.236 -0.2625  0.0752  0.2693
 4332PP      PP14436  14.722   4.600  12.458  0.1272 -0.0174  0.0232
 4333PP      PP14437   9.591  14.554   9.109  0.2223  0.0739 -0.2433
 4334PP      PP14438   4.224   9.535  11.160 -0.1475  0.1782  0.0096
 4335PP      PP14439   3.052   8.548   0.582 -0.0915 -0.2149 -0.0248
 4336PP      PP14440  14.739  11.523   0.059 -0.0678 -0.0906  0.4148
 4337PP      PP14441  14.854  13.133   4.578 -0.0822 -0.1666  0.0831
 4338PP      PP14442  15.553   2.980   2.511  0.2001 -0.0184  0.1341
 4339PP      PP14443  15.383  12.546   2.903 -0.0308  0.1487  0.0444
 4340PP      PP14444   0.762   1.245   3.592 -0.2343  0.0797 -0.3155
 4341PP      PP14445  14.466  11.408   9.417 -0.0469 -0.2612 -0.2311
 4342PP      PP14446   2.392   8.039  11.301  0.0745 -0.4989 -0.2154
 4343PP      PP14447  13.958   5.985  10.493 -0.1725 -0.2744 -0.0518
 4344PP      PP14448   9.552   0.153  13.030  0.2043  0.2798  0.1370
 4345PP      PP14449   9.570   6.760   7.941 -0.3621  0.2021 -0.0149
 4346PP      PP14450  11.031   3.722  13.411 -0.1058  0.3865  0.1923
 4347PP      PP14451   2.756  13.659   3.735  0.1991  0.0513 -0.1662
 4348PP      PP14452   7.846   8.532   3.374  0.0081 -0.1570 -0.2006
 4349PP      PP14453   8.882  15.206  13.246 -0.0106  0.0424 -0.0766
 4350PP      PP14454   9.547   5.091   0.872 -0.1059  0.0300 -0.1245
 4351PP      PP14455   0.068  11.052   9.707  0.3510  0.1238 -0.2009
 4352PP      PP14456   2.589   6.545   1.716  0.0325 -0.1151 -0.1221
 4353PP      PP14457   5.705   4.402   8.383 -0.1033  0.0477  0.0102
 4354PP      PP14458  11.255  14.110  12.075 -0.2559 -0.0090  0.2466
 4355PP      PP14459  10.999  13.096  10.000 -0.2000  0.0598 -0.1110
 4356PP      PP14460  11.660   0.188  10.129  0.5104 -0.1376  0.1234
 4357PP      PP14461   2.169  15.337  11.751  0.2768  0.0930  0.0348
 4358PP      PP14462   6.783  12.013   1.363  0.2510 -0.0450 -0.2957
 4359PP      PP14463   3.048  12.803   4.003 -0.0096  0.5466  0.2520
 4360PP      PP14464   0.769   3.927   9.042  0.0002 -0.2308 -0.0565
 4361PP      PP14465   2.826  13.612   9.126 -0.0138 -0.3259 -0.0439
 4362PP      PP14466  13.171   2.418   2.222  0.3903  0.1710 -0.0259
 4363PP      PP14467  11.791   0.637   3.771 -0.0453 -0.1668 -0.0180
 4364PP      PP14468   2.459  11.880  12.485 -0.0126  0.2542 -0.4042
 4365PP      PP14469  15.497  10.772   4.687 -0.1158 -0.2209  0.0080
 4366PP      PP14470   1.950  14.114  12.822 -0.2374 -0.2250  0.1510
 4367PP      PP14471   3.642  12.208  12.271 -0.2003  0.0687  0.2505
 4368PP      PP14472   4.900   8.897  10.319 -0.2019 -0.2639  0.0726
 4369PP      PP14473   6.494  14.737   1.300 -0.2032  0.1154  0.1318
 4370PP      PP14474  11.365   1.944   3.928 -0.0468  0.1074  0.0440
 4371PP      PP14475  15.388   0.425  13.038 -0.0220 -0.0953 -0.0645
 4372PP      PP14476   1.509   6.823  11.498  0.3016 -0.1229 -0.1420
 4373PP      PP14477  15.332   7.829  11.899 -0.0173 -0.0837 -0.0229
 4374PP      PP14478   4.783   5.928   4.096  0.0869  0.1369  0.0604
 4375PP      PP14479   0.791   2.472   0.251 -0.1205 -0.2826  0.1173
 4376PP      PP14480   3.446   1.687   3.739 -0.0852 -0.1963 -0.0030
 4377PP      PP14481  13.976   5.185  10.221  0.3163  0.3634  0.4460
 4378PP      PP14482   1.712  13.940  11.666 -0.0958  0.0550 -0.2281
 4379PP      PP14483   0.715   5.462  12.805 -0.0052  0.2645 -0.0855
 4380PP      PP14484  13.897   6.919   1.498  0.1181  0.0477 -0.1043
 4381PP      PP14485   4.608   3.004   1.181  0.2261 -0.0838 -0.1139
 4382PP      PP14486   4.177   8.456   0.588 -0.1146  0.1456  0.1723
 4383PP      PP14487   6.997   4.072   9.409  0.0175 -0.1023  0.0261
 4384PP      PP14488   4.863   1.635  13.315  0.0922 -0.3098  0.1067
 4385PP      PP14489   0.018   7.964   2.325  0.1741 -0.0603 -0.0030
 4386PP      PP14490   6.234   0.296  11.797  0.0262  0.1118 -0.0153
 4387PP      PP14491   5.308   9.756   1.041 -0.2177  0.2741 -0.0795
 4388PP      PP14492  10.954   8.640  12.947  0.0993 -0.0830  0.0564
 4389PP      PP14493   6.230   6.421  11.258 -0.0226 -0.0734  0.1232
 4390PP      PP14494  10.840  10.834  10.231 -0.0246  0.1411  0.1107
 4391PP      PP14495  15.634  15.296  10.802 -0.2979 -0.4702 -0.2065
 4392PP      PP14496  13.980   1.004   4.354 -0.1904  0.0316 -0.2382
 4393PP      PP14497   8.405   8.411  11.728 -0.2834  0.0065  0.2422
 4394PP      PP14498  15.640   8.444  13.009  0.0826  0.1663 -0.1246
 4395PP      PP14499  12.128   4.300   9.327 -0.1680  0.0974 -0.2245
 4396PP      PP14500  10.688   9.486   8.849  0.0232 -0.1516 -0.0056
 4397PP      PP14501  10.937   5.953   2.629  0.2984  0.0800 -0.0565
 4398PP      PP14502   5.927  14.721   3.630 -0.1427  0.1491 -0.0899
 4399PP      PP14503   1.360   5.044  11.804  0.1505  0.0109 -0.0914
 4400PP      PP14504  12.027   9.435  12.595  0.0131 -0.1134  0.0854
 4401PP      PP14505   1.004   2.123  13.165 -0.1899  0.1297  0.0661
 4402PP      PP14506  12.389   9.094   0.826 -0.5673 -0.1464  0.1832
 4403PP      PP14507   9.312  12.034   0.783  0.1420  0.0790  0.1044
 4404PP      PP14508  11.997   9.031  12.110 -0.1163 -0.0555 -0.1913
 4405PP      PP14509   0.782   9.500   2.543  0.0305 -0.1032  0.2590
 4406PP      PP14510   7.934  10.654  12.472 -0.2033 -0.0237 -0.0191
 4407PP      PP14511   1.511   0.604   0.149 -0.0154  0.1043 -0.0674
 4408PP      PP14512   4.620   0.794   9.858 -0.1412 -0.0719  0.0500
 4409PP      PP14513   5.178  11.141  10.765 -0.2063  0.2665 -0.1952
 4410PP      PP14514   6.294   7.485   1.815 -0.2550 -0.1024 -0.2567
 4411PP      PP14515  10.195  14.545   3.085 -0.0742  0.0458 -0.0268
 4412PP      PP14516   1.742   6.759   1.260  0.0025  0.1423 -0.0457
 4413PP      PP14517  12.049   4.110   3.010  0.1583  0.0943 -0.1928
 4414PP      PP14518   3.368   5.550  12.970 -0.0652  0.2294  0.2612
 4415PP      PP14519  10.587  10.346  10.375  0.1435  0.0365  0.2724
 4416PP      PP14520   6.250   8.138   0.511  0.0339  0.0201  0.4486
 4417PP      PP14521   5.216   3.753   4.331  0.4115 -0.1536  0.0143
 4418PP      PP14522   7.811   5.141   1.734  0.1211  0.1652  0.0798
 4419PP      PP14523  13.126   8.997   9.169 -0.1157 -0.1580 -0.0729
 4420PP      PP14524   9.249   8.962   1.983  0.0572 -0.1113  0.0197
 4421PP      PP14525   2.870   6.891   1.078  0.1228  0.1528  0.0516
 4422PP      PP14526  13.671  12.815   3.111  0.2534 -0.3910 -0.2799
 4423PP      PP14527   4.961  12.789  12.914 -0.0390  0.0595  0.0046
 4424PP      PP14528   4.148   8.769  12.019  0.1161  0.1896  0.0135
 4425PP      PP14529   6.182  11.906   2.661 -0.1759 -0.1638 -0.1797
 4426PP      PP14530   7.743  12.809   2.201 -0.3620 -0.3793  0.1186
 4427PP      PP14531   4.924   5.310  12.851 -0.0586 -0.1864  0.1308
 4428PP      PP14532   3.010   1.365  12.411  0.1584  0.1222  0.2153
 4429PP      PP14533   8.014   3.832   1.432 -0.0445  0.2301  0.0860
 4430PP      PP14534   6.512  15.022  12.322 -0.1349 -0.3798 -0.0247
 4431PP      PP14535   1.415   0.047   1.981  0.1482  0.1264 -0.0080
 4432PP      PP14536   1.082  10.046   2.838 -0.2726  0.1836  0.0519
 4433PP      PP14537   3.018   2.191  11.791  0.1986 -0.2880 -0.0323
 4434PP      PP14538  15.858   0.804   0.520 -0.0454  0.2168 -0.0259
 4435PP      PP14539  15.767  10.923   1.828  0.2271 -0.0015 -0.2770
 4436PP      PP14540   0.641  10.242   2.886 -0.1436 -0.1289 -0.1145
 4437PP      PP14541  15.409  11.397   9.284  0.0626 -0.2106  0.1735
 4438PP      PP14542  10.241  10.494  12.924 -0.0008 -0.1865  0.0944
 4439PP      PP14543   8.565   2.119  11.310  0.1982 -0.3001 -0.2172
 4440PP      PP14544   0.281   8.427  10.510 -0.1919 -0.0522  0.1662
 4441PP      PP14545  11.203   7.219  13.277  0.1053 -0.3413 -0.3260
 4442PP      PP14546   8.259   1.592  13.247  0.2604  0.1130  0.2633
 4443PP      PP14547   8.126   3.502   9.051  0.1754  0.3801  0.1897
 4444PP      PP14548   5.668   4.979  10.031  0.1625  0.0703  0.0017
 4445PP      PP14549   6.746   0.317  12.733  0.0004  0.0420  0.2915
 4446PP      PP14550   9.581  14.999  12.792 -0.0544 -0.1631  0.0028
 4447PP      PP14551  12.959  13.069   9.997 -0.2468 -0.0758  0.2478
 4448PP      PP14552  13.522   9.848  12.978  0.2134 -0.2213 -0.2131
 4449PP      PP14553   0.739  13.623  12.732  0.3713  0.3267 -0.1075
 4450PP      PP14554   5.301   1.308  11.643  0.0146  0.1479 -0.0383
 4451PP      PP14555   5.744  14.761  12.103 -0.1228  0.0691  0.3161
 4452PP      PP14556  15.210  15.474   3.316 -0.1828 -0.1332 -0.0915
 4453PP      PP14557   8.285  14.120  11.877 -0.2103 -0.0594  0.1165
 4454PP      PP14558   1.421   7.257   3.527 -0.1621  0.0046 -0.4742
 4455PP      PP14559   9.484   3.354   0.070  0.0206 -0.0760 -0.0947
 4456PP      PP14560   0.228   7.518  11.673  0.0339  0.2126  0.3213
 4457PP      PP14561   5.653   1.676   0.039  0.0344  0.0287  0.1477
 4458PP      PP14562   4.944   1.357   4.743  0.1008 -0.0160 -0.3211
 4459PP      PP14563   1.378   3.026   4.878 -0.0144 -0.0334  0.1046
 4460PP      PP14564   0.761   3.616   4.642  0.2657  0.1370 -0.1900
 4461PP      PP14565   3.364  15.706   0.639  0.1534  0.0748  0.0216
 4462PP      PP14566   7.661  15.483   9.296 -0.1280  0.2309 -0.0262
 4463PP      PP14567   7.294  15.210   0.099  0.0924  0.1850 -0.0230
 4464PP      PP14568   6.736   8.094  13.207 -0.3370  0.0196 -0.1727
 4465PP      PP14569   3.721   0.414  12.825  0.0069  0.0948 -0.0373
 4466PP      PP14570   1.390  13.214   1.573 -0.2234 -0.1096  0.0875
 4467PP      PP14571   6.177  11.893   3.709 -0.1089  0.0664  0.0902
 4468PP      PP14572   7.317   1.174   1.822  0.0524  0.0310  0.2607
 4469PP      PP14573  12.782  13.481  10.910 -0.1212 -0.4060  0.1814
 4470PP      PP14574   4.084  13.779   3.591 -0.0975 -0.1803 -0.1658
 4471PP      PP14575   2.677  15.803   3.113 -0.2621 -0.2235  0.1548
 4472PP      PP14576  15.335   8.432   8.535 -0.5205  0.0176  0.2560
 4473PP      PP14577  12.765  10.668   1.004 -0.2727  0.0933 -0.1255
 4474PP      PP14578  14.490  13.376   1.193 -0.0282  0.1664 -0.0296
 4475PP      PP14579   7.208   3.584   1.648  0.0265 -0.0001 -0.1799
 4476PP      PP14580  14.027   4.663   8.488  0.0625 -0.1930 -0.1664
 4477PP      PP14581  14.155  12.630   3.248  0.1733  0.2074 -0.4002
 4478PP      PP14582   9.227  13.624   3.743 -0.1122 -0.1386 -0.0945
 4479PP      PP14583   4.693  13.566   2.452 -0.1872 -0.2523  0.0374
 4480PP      PP14584   5.671   2.002  12.697  0.1903 -0.0726  0.0605
 4481PP      PP14585   8.201  13.775   0.271 -0.0178 -0.1027 -0.0090
 4482PP      PP14586   0.050  13.473  10.475 -0.0549 -0.0850 -0.0517
 4483PP      PP14587   3.327  13.665   3.521  0.2767 -0.0926 -0.1565
 4484PP      PP14588   0.835   4.709   2.089 -0.3035  0.0947  0.0471
 4485PP      PP14589   0.331   2.223   1.539 -0.0805  0.1253 -0.2952
 4486PP      PP14590  15.865   5.241   2.705 -0.0122 -0.5346 -0.0493
 4487PP      PP14591   0.765   1.244   0.194  0.1442 -0.2643  0.0331
 4488PP      PP14592  11.015  12.503   3.880 -0.0640  0.3536  0.1621
 4489PP      PP14593   4.887   1.075  13.128  0.0634 -0.2356 -0.1540
 4490PP      PP14594  13.067  13.132  10.533  0.1831  0.1628 -0.0047
 4491PP      PP14595   5.965   5.569   9.210 -0.0042  0.0447  0.2535
 4492PP      PP14596  14.405   0.889  11.545  0.0772  0.1163 -0.1044
 4493PP      PP14597   2.017  15.116  10.417  0.3234 -0.2119  0.2368
 4494PP      PP14598   0.293   5.474   2.394 -0.1440 -0.0857 -0.1332
 4495PP      PP14599   4.215   9.617   4.409 -0.0322 -0.0248  0.1986
 4496PP      PP14600   5.584  13.846   0.079  0.2311  0.1527  0.1189
 4497PP      PP14601  13.071  12.672  12.814  0.2297  0.1007 -0.0350
 4498PP      PP14602  13.344   0.561  13.051 -0.0555 -0.1086 -0.1949
 4499PP      PP14603  14.616  13.368  10.707 -0.4760 -0.1303 -0.0044
 4500PP      PP14604  10.107  15.253   1.018  0.2597  0.2077 -0.1321
 4501PP      PP14605  15.660   7.464   2.365  0.0499 -0.2646 -0.0040
 4502PP      PP14606   6.171  10.847   2.333  0.0344 -0.1507 -0.1484
 4503PP      PP14607  13.067   3.330  11.008 -0.0298 -0.0057  0.0312
 4504PP      PP14608  13.861   7.634  10.917 -0.1117 -0.1435  0.0815
 4505PP      PP14609   5.617   6.798  12.271  0.1193  0.0400  0.2245
 4506PP      PP14610   2.858  15.197  12.515 -0.1790  0.0437  0.1000
 4507PP      PP14611   4.313  14.561  12.499  0.0223 -0.1415 -0.1394
 4508PP      PP14612   6.795  15.081   9.161  0.2623 -0.0876 -0.1249
 4509PP      PP14613  11.363  14.292   3.071 -0.1794  0.1957 -0.2043
 4510PP      PP14614  14.578   1.616   9.548 -0.0579  0.0388 -0.2333
 4511PP      PP14615  12.461  10.043   2.936 -0.2104 -0.1701 -0.0913
 4512PP      PP14616  12.808  10.850   1.452 -0.2424 -0.1432 -0.2351
 4513PP      PP14617   6.533   0.050  10.990  0.3252 -0.1689 -0.2421
 4514PP      PP14618   9.925   7.792  11.271 -0.1119 -0.0642  0.2059
 4515PP      PP14619   3.109   0.109  11.244  0.2373  0.1106 -0.2000
 4516PP      PP14620   0.891   7.887   8.600  0.0730 -0.0960 -0.0450
 4517PP      PP14621  12.393   2.680   3.116 -0.0657  0.3129  0.0016
 4518PP      PP14622   4.960   0.915   4.417  0.0037  0.1121  0.1396
 4519PP      PP14623   2.501  14.715   1.853  0.2605 -0.2535 -0.0162
 4520PP      PP14624  13.319   3.848   0.508  0.3584 -0.1627  0.3195
 4521PP      PP14625   6.731   2.675   9.672 -0.0121  0.0892 -0.2672
 4522PP      PP14626  11.483  11.677   9.305 -0.0908 -0.0405  0.1204
 4523PP      PP14627   8.485   5.953   1.662  0.2073 -0.0649  0.1826
 4524PP      PP14628  15.706  10.002   0.976 -0.1511 -0.0587  0.0086
 4525PP      PP14629   1.638   6.045  10.355 -0.1311  0.0670  0.0270
 4526PP      PP14630   5.141  11.011   0.432  0.3250  0.0146  0.3771
 4527PP      PP14631  13.910   0.331   9.958 -0.2230  0.2685 -0.1195
 4528PP      PP14632  14.208  13.727  12.744  0.0573 -0.0743  0.1476
 4529PP      PP14633  11.292  10.047  12.864  0.3030  0.1687 -0.1918
 4530PP      PP14634  11.894   4.071  12.604  0.1160  0.2293 -0.1452
 4531PP      PP14635  14.722  11.071   4.249 -0.1339  0.2945  0.3831
 4532PP      PP14636  14.986  10.639  12.056 -0.2802 -0.2907 -0.2384
 4533PP      PP14637  15.389   8.393   2.014  0.1021 -0.1745 -0.4031
 4534PP      PP14638   2.063   3.398  10.060  0.0597 -0.3872 -0.1403
 4535PP      PP14639   3.999  10.026  11.934 -0.0845 -0.0437  0.2893
 4536PP      PP14640  14.527  11.264  12.307  0.2516 -0.2091 -0.1035
 4537PP      PP14641   3.544  11.253  12.363 -0.2016 -0.1722 -0.0363
 4538PP      PP14642  11.628  12.223   8.964  0.2011  0.0108  0.3368
 4539PP      PP14643   9.769   5.621   8.157 -0.1762 -0.1973  0.0160
 4540PP      PP14644  10.690   5.428   1.407  0.2934 -0.0076 -0.1909
 4541PP      PP14645  15.766  12.581   3.164  0.1218 -0.4182  0.0556
 4542PP      PP14646   8.005   3.610  10.373  0.2129  0.2014 -0.0369
 4543PP      PP14647  14.496   1.594  11.559  0.1354 -0.2521  0.1848
 4544PP      PP14648  10.986   8.809   0.376  0.3483 -0.0660  0.0933
 4545PP      PP14649  10.141  11.067   0.606  0.1589 -0.1311  0.2603
 4546PP      PP14650  11.574  13.712   0.247 -0.1226  0.1996 -0.1429
 4547PP      PP14651   7.300   1.571   3.110  0.0414 -0.0413 -0.0445
 4548PP      PP14652  10.620   3.415  13.122 -0.1169 -0.4527 -0.2844
 4549PP      PP14653   4.708  14.193  12.359  0.0469  0.0715 -0.2473
 4550PP      PP14654  15.072   9.577   2.345  0.2864  0.2009 -0.0942
 4551PP      PP14655   1.550   8.806   3.928  0.0119  0.1657 -0.1104
 4552PP      PP14656  12.504  12.395   1.002 -0.3023 -0.0904  0.4359
 4553PP      PP14657   8.479   4.814  12.032  0.1637  0.2923 -0.1564
 4554PP      PP14658   9.694  14.881   1.013 -0.3005  0.0718 -0.1023
 4555PP      PP14659  12.539   9.255   3.627 -0.2469  0.2050 -0.0320
 4556PP      PP14660  10.407   3.882  13.058  0.0047  0.2322 -0.0740
 4557PP      PP14661  13.331  15.021   2.820  0.0632 -0.1419 -0.1435
 4558PP      PP14662  10.077   0.021   1.126  0.3016 -0.0219 -0.0976
 4559PP      PP14663   9.847   2.516  11.875  0.0887  0.0478 -0.0783
 4560PP      PP14664  11.432   0.837   2.519  0.2793 -0.0851 -0.2480
 4561PP      PP14665  10.504   9.891  12.528  0.1062  0.0699 -0.2094
 4562PP      PP14666  15.831   5.169   8.547  0.1669  0.2270 -0.0241
 4563PP      PP14667   7.953  15.219   4.347  0.0959  0.0073 -0.2012
 4564PP      PP14668   0.097  15.402   8.954  0.1488  0.1193 -0.1780
 4565PP      PP14669   6.682   6.430  11.488 -0.0271 -0.2636 -0.0761
 4566PP      PP14670   5.976   0.069  13.014  0.0203 -0.1498  0.1639
 4567PP      PP14671   4.436   3.269  12.045  0.0304 -0.0978 -0.0776
 4568PP      PP14672  14.580  10.214  12.392  0.0077 -0.1337 -0.3055
 4569PP      PP14673  11.007   3.918  11.661 -0.1072  0.1407 -0.0695
 4570PP      PP14674   0.752   0.096  11.776 -0.1410 -0.0990 -0.0637
 4571PP      PP14675  11.786   3.122   3.263 -0.2207 -0.1246 -0.0986
 4572PP      PP14676   6.415  10.066  11.869 -0.0635  0.0474 -0.2081
 4573PP      PP14677   6.316   0.582   9.683  0.0136 -0.0272 -0.2892
 4574PP      PP14678   6.151  15.065   1.469 -0.2736 -0.0529 -0.0872
 4575PP      PP14679   5.329   3.312  10.596 -0.1087  0.0987 -0.2535
 4576PP      PP14680   0.568  15.436  11.769  0.0137  0.1462  0.1404
 4577PP      PP14681   6.764  11.376  12.752 -0.1002 -0.1889 -0.1563
 4578PP      PP14682   4.318  11.534   3.561 -0.0681 -0.2943  0.2926
 4579PP      PP14683   5.124  10.389   9.250  0.1068  0.0050  0.1401
 4580PP      PP14684  13.320  15.783   3.558 -0.0087 -0.0054  0.1107
 4581PP      PP14685  11.456   9.376   1.885  0.0316 -0.1294  0.2430
 4582PP      PP14686  12.988   2.427   1.754 -0.0857  0.2332 -0.1092
 4583PP      PP14687   5.131   1.147   0.980 -0.0642  0.3682  0.1169
 4584PP      PP14688  10.893  10.794   3.994 -0.1093 -0.1893 -0.1435
 4585PP      PP14689  10.888  14.554   3.638  0.1779 -0.1724  0.0866
 4586PP      PP14690  13.257   0.882   2.345 -0.1782 -0.0288 -0.2663
 4587PP      PP14691   7.021   3.418  13.250 -0.0333  0.4256  0.1056
 4588PP      PP14692   2.854   7.824  12.543 -0.0163  0.1698 -0.5289
 4589PP      PP14693   4.549  15.265   1.324 -0.0815 -0.1839 -0.0010
 4590PP      PP14694   3.088  15.272   2.241  0.1050 -0.0721 -0.1333
 4591PP      PP14695  10.451   7.389   0.104  0.0485  0.1560 -0.0978
 4592PP      PP14696   1.523   6.150   0.142  0.4047  0.2173 -0.1185
 4593PP      PP14697   0.794   9.488   3.621 -0.2314  0.0412 -0.0548
 4594PP      PP14698   7.491   7.115  11.555  0.0319 -0.0024 -0.0424
 4595PP      PP14699   4.669   1.310   0.134  0.0416  0.2114 -0.0164
 4596PP      PP14700  13.171   3.651   2.766 -0.1807 -0.2325  0.0250
 4597PP      PP14701   8.149   1.831  12.702  0.0317 -0.0002  0.1639
 4598PP      PP14702   3.066  14.421   0.280 -0.1519 -0.2798 -0.0509
 4599PP      PP14703  11.970   4.492  11.640  0.0002  0.0556  0.0444
 4600PP      PP14704   8.158  15.670   9.453  0.1403 -0.3727  0.2625
 4601PP      PP14705   7.264   7.528   8.910  0.1702 -0.1254  0.3710
 4602PP      PP14706   3.898   5.023   0.418 -0.2563  0.1144 -0.0401
 4603PP      PP14707  11.867  12.703   3.818 -0.1056 -0.2825 -0.0647
 4604PP      PP14708   2.323   2.185   0.056  0.0786 -0.1750 -0.1663
 4605PP      PP14709  10.903  13.720  12.145 -0.0502  0.1046  0.1074
 4606PP      PP14710   1.509   3.573   2.705 -0.3240  0.0521 -0.0789
 4607PP      PP14711  14.537   8.108   3.151  0.0857 -0.1443  0.3993
 4608PP      PP14712  14.092  10.687  11.460 -0.3650 -0.3803  0.1515
 4609PP      PP14713   0.095   9.325   8.251  0.1998 -0.3372 -0.0982
 4610PP      PP14714  13.635   9.653   9.928  0.1076  0.1194 -0.0551
 4611PP      PP14715   7.961   1.972   3.122  0.1422  0.3753  0.1700
 4612PP      PP14716   6.256  12.472  12.598 -0.1256 -0.2823 -0.3508
 4613PP      PP14717   1.387  13.453   2.049 -0.0923  0.1958 -0.2738
 4614PP      PP14718   3.763  15.817   1.571 -0.0063  0.0981  0.1158
 4615PP      PP14719   4.186   7.458   3.791 -0.0085  0.1624  0.0216
 4616PP      PP14720   1.412   5.620   1.378  0.5406 -0.1851  0.3983
 4617PP      PP14721   3.819   0.213   4.035  0.2232  0.0067  0.1097
 4618PP      PP14722   7.087   6.755  12.854 -0.1665  0.0505  0.1262
 4619PP      PP14723  10.137   3.645   2.206 -0.1840 -0.2445 -0.0216
 4620PP      PP14724  10.223  10.288   1.192  0.0409  0.5631  0.1619
 4621PP      PP14725  13.983   3.323   0.772 -0.3405 -0.2918 -0.0453
 4622PP      PP14726   6.753   7.020   2.350 -0.0086 -0.3333  0.0799
 4623PP      PP14727  11.036   8.124  13.191  0.2416 -0.1786  0.1852
 4624PP      PP14728   1.993   7.724   0.651  0.1553 -0.0005 -0.1083
 4625PP      PP14729  13.839   3.758   3.685  0.2479  0.0062  0.1982
 4626PP      PP14730  14.764   6.857   9.080 -0.0759  0.1427 -0.0049
 4627PP      PP14731   1.062   5.356   1.553  0.1407 -0.0200  0.0996
 4628PP      PP14732   7.864  15.500  13.136  0.0494 -0.0197  0.2989
 4629PP      PP14733   0.905   1.211   3.075  0.0953 -0.2164  0.0525
 4630PP      PP14734   2.091  14.849  12.465  0.1300 -0.5360  0.0502
 4631PP      PP14735  14.377  11.446  12.775 -0.0790  0.2346  0.0241
 4632PP      PP14736   6.299   4.553   8.643 -0.0401 -0.0080  0.1678
 4633PP      PP14737  15.195   0.109   1.167 -0.1989  0.3211  0.0083
 4634PP      PP14738  10.873   3.303   2.197 -0.2447  0.0162 -0.0509
 4635PP      PP14739   7.097   3.877  12.821  0.0287 -0.1678  0.0027
 4636PP      PP14740  13.697   3.156   4.333  0.1210 -0.5366  0.0484
 4637PP      PP14741  15.770   3.237   2.013 -0.2246 -0.0749  0.0471
 4638PP      PP14742  15.724  10.392   1.267  0.0320  0.2331 -0.3200
 4639PP      PP14743  13.882   7.644  11.547 -0.1784  0.1584  0.1493
 4640PP      PP14744   3.905  12.739  11.573  0.1988  0.0976  0.2543
 4641PP      PP14745  14.071  15.482  10.108 -0.0958 -0.2001  0.2775
 4642PP      PP14746   8.884  10.565   3.208  0.1396 -0.0273 -0.1455
 4643PP      PP14747  12.848   1.975   1.875 -0.1276 -0.0624 -0.2451
 4644PP      PP14748  13.509   5.853   8.359 -0.1672  0.2793  0.0875
 4645PP      PP14749   5.883  10.331   1.607  0.1117  0.3583 -0.0892
 4646PP      PP14750   9.164   4.796   1.893  0.0768 -0.1430  0.2024
 4647PP      PP14751   3.914   3.967   4.606  0.2011 -0.3135  0.2873
 4648PP      PP14752  13.679  14.389   9.515 -0.1977 -0.0852 -0.0870
 4649PP      PP14753   3.712   4.098   9.260  0.0373  0.0647 -0.1866
 4650PP      PP14754   6.150   0.456   1.293  0.0241 -0.0845 -0.0286
 4651PP      PP14755   2.866   5.310  11.408  0.3551 -0.0470 -0.0670
 4652PP      PP14756  10.101  12.573   2.262 -0.1365 -0.0485 -0.0614
 4653PP      PP14757   8.625  10.174  13.527  0.2489  0.0931 -0.3316
 4654PP      PP14758   2.607   8.841   1.710 -0.0574  0.2045 -0.0071
 4655PP      PP14759   8.491   5.715   0.141  0.2263 -0.0058 -0.2321
 4656PP      PP14760  13.814   1.890   1.957  0.1455  0.3765 -0.0571
 4657PP      PP14761   6.548  15.564   9.298  0.0593 -0.2046  0.0893
 4658PP      PP14762  10.283   0.032   2.599 -0.4251  0.0978  0.1997
 4659PP      PP14763   0.467   4.402   2.018 -0.2074  0.0212  0.1184
 4660PP      PP14764   5.242   9.572  10.857  0.0900  0.0920 -0.1810
 4661PP      PP14765  11.269   6.853   7.522 -0.1521 -0.0597 -0.1632
 4662PP      PP14766   5.790   1.698  10.336 -0.1940 -0.2086  0.3548
 4663PP      PP14767  10.839   7.121  12.317  0.1225 -0.3902 -0.2339
 4664PP      PP14768  15.479  12.518  10.481 -0.2854  0.0470  0.3159
 4665PP      PP14769   5.690   1.209  10.322  0.1115  0.0405 -0.3166
 4666PP      PP14770   1.364   7.153  10.834 -0.0370  0.3052  0.0234
 4667PP      PP14771   0.182   3.652  10.537 -0.1798  0.0595 -0.0115
 4668PP      PP14772   0.215   7.403  12.200 -0.2070  0.1779  0.1177
 4669PP      PP14773   8.704   8.371  12.302  0.2041 -0.0142  0.0837
 4670PP      PP14774   8.424  15.018   2.800  0.0268 -0.1910  0.2931
 4671PP      PP14775   8.731   3.394   4.803  0.0404 -0.1920 -0.0793
 4672PP      PP14776   6.212   0.335   3.066 -0.1375  0.0562 -0.0942
 4673PP      PP14777   2.207   2.620   4.439  0.1459  0.0197 -0.1613
 4674PP      PP14778   4.084  13.059   0.804 -0.1643 -0.2205 -0.0075
 4675PP      PP14779   5.104  11.330   0.033  0.3726 -0.3915 -0.1899
 4676PP      PP14780   5.201   5.099  12.219  0.0404 -0.1105 -0.0192
 4677PP      PP14781   4.126   1.024   9.761 -0.0923 -0.1206 -0.0784
 4678PP      PP14782  11.490   1.229   0.789  0.1822  0.2659  0.1369
 4679PP      PP14783  10.511  11.370   2.710 -0.2679 -0.2859  0.1923
 4680PP      PP14784   0.688   5.652   2.696  0.1444  0.1023 -0.0560
 4681PP      PP14785  13.360   1.565  12.230 -0.1524  0.1037 -0.1106
 4682PP      PP14786   7.353   5.869   1.995 -0.2765 -0.1866 -0.0540
 4683PP      PP14787  10.046   9.127  13.531  0.0021  0.0930  0.0824
 4684PP      PP14788   3.877   8.695  10.309  0.4400 -0.1235 -0.0365
 4685PP      PP14789  12.193  15.533   9.396 -0.4643  0.4103 -0.4264
 4686PP      PP14790  10.182   4.759   3.248 -0.0737 -0.0446  0.1804
 4687PP      PP14791   9.923   6.993  10.860 -0.1366 -0.3700  0.2537
 4688PP      PP14792   9.090   2.965  12.418 -0.0800 -0.2420 -0.0469
 4689PP      PP14793   4.670   4.289   2.440 -0.1356 -0.2312 -0.2219
 4690PP      PP14794   5.675  10.930   3.703  0.0147  0.0388 -0.1891
 4691PP      PP14795  14.932   5.231   1.557  0.1385 -0.0106  0.0396
 4692PP      PP14796   5.300   8.119   9.627 -0.2368 -0.1393 -0.0985
 4693PP      PP14797  13.632   3.083  11.347  0.3550  0.1222 -0.0266
 4694PP      PP14798  14.323  15.758  13.425 -0.1780 -0.0599 -0.4455
 4695PP      PP14799   7.354  14.001   0.478  0.0712  0.0360  0.1193
 4696PP      PP14800   6.817   7.320   1.906  0.3896  0.0607 -0.0313
 4697PP      PP14801  15.199  11.228  11.105 -0.0812  0.2455  0.0834
 4698PP      PP14802  14.296   8.162  12.902 -0.1381 -0.1435  0.1726
 4699PP      PP14803  10.501   7.542   2.796 -0.0382 -0.1903 -0.2122
 4700PP      PP14804   0.250   5.110   9.206 -0.1770 -0.0886  0.0475
 4701PP      PP14805   2.716  12.239   2.061  0.1221 -0.7744  0.0072
 4702PP      PP14806  14.917   1.109   4.228  0.3442 -0.2297  0.3383
 4703PP      PP14807   2.841   7.327   1.381 -0.1229  0.0801  0.3361
 4704PP      PP14808   4.714  14.049   4.428  0.3313 -0.0264  0.0436
 4705PP      PP14809   6.804   5.105  11.433 -0.1150  0.2065  0.0571
 4706PP      PP14810   0.953  13.363   3.166 -0.0267  0.2127  0.1063
 4707PP      PP14811   2.710   6.409   4.381 -0.0178  0.1773  0.1158
 4708PP      PP14812   2.588   4.237  12.885 -0.1652 -0.1247 -0.2576
 4709PP      PP14813   1.125   0.578   1.370 -0.0387  0.0263  0.0096
 4710PP      PP14814   4.744   3.895   2.050  0.2622  0.1672 -0.1024
 4711PP      PP14815  10.743   4.048   8.910 -0.0548 -0.2467  0.2930
 4712PP      PP14816  11.693  10.783   1.317  0.4882 -0.2335 -0.1304
 4713PP      PP14817  14.028  15.640   2.423 -0.1074  0.0157 -0.0609
 4714PP      PP14818  11.005   8.026  11.098  0.1207  0.0956 -0.0792
 4715PP      PP14819  15.840  15.089   0.645  0.0164 -0.2398 -0.1108
 4716PP      PP14820   8.568  14.497   1.862 -0.1759  0.1277 -0.0291
 4717PP      PP14821  13.051   1.877  12.746 -0.3283  0.4030  0.1050
 4718PP      PP14822  12.444   3.988  12.505 -0.2874  0.2627  0.1839
 4719PP      PP14823  13.285   2.327  13.316  0.0573 -0.0365  0.0033
 4720PP      PP14824   0.543  14.938   1.530 -0.1453  0.2141 -0.2270
 4721PP      PP14825  13.130  13.512   3.461 -0.1112  0.0372 -0.1557
 4722PP      PP14826  14.808   1.929   3.220 -0.1716 -0.0659 -0.0590
 4723PP      PP14827   9.846   6.966   0.170  0.0657 -0.1803  0.0711
 4724PP      PP14828   0.481   8.532  11.271  0.0830  0.0079 -0.0044
 4725PP      PP14829   6.518   9.394   2.702 -0.0077 -0.0101  0.0939
 4726PP      PP14830   9.020   9.941   1.428 -0.1719  0.0523 -0.0698
 4727PP      PP14831   1.413   2.221   9.463 -0.1636  0.3113 -0.2135
 4728PP      PP14832   1.024   5.900  12.241  0.0622 -0.2207  0.1279
 4729PP      PP14833   9.508  12.985  11.122 -0.2093 -0.0135 -0.3703
 4730PP      PP14834   8.914  11.494   1.056  0.1338 -0.0111  0.3394
 4731PP      PP14835   6.583   1.337   4.371  0.1849 -0.1549 -0.2010
 4732PP      PP14836  10.137   6.034   1.635 -0.2048  0.0310  0.0722
 4733PP      PP14837   0.905  14.509  12.016 -0.1075 -0.1128  0.1531
 4734PP      PP14838   7.012   0.062   0.673 -0.0186  0.2315 -0.1052
 4735PP      PP14839  14.055   1.591   9.569 -0.2689  0.1251  0.1502
 4736PP      PP14840  10.143  15.180   1.936  0.0218  0.0336  0.0989
 4737PP      PP14841  15.667   7.368  12.464  0.0212  0.1658  0.2507
 4738PP      PP14842   6.361   9.845   1.090 -0.1462 -0.2176 -0.0557
 4739PP      PP14843  14.430   4.826  11.826  0.0847 -0.1073 -0.0338
 4740PP      PP14844   0.578   0.080  12.752 -0.2759  0.2127  0.1673
 4741PP      PP14845   3.509   9.800   4.204 -0.1000 -0.3617  0.0800
 4742PP      PP14846   7.962   1.631  10.791 -0.1628  0.0855 -0.0698
 4743PP      PP14847  10.403   1.192  10.734 -0.0968 -0.4457 -0.2030
 4744PP      PP14848   1.735   9.566   3.334 -0.3027 -0.1102 -0.3293
 4745PP      PP14849  13.241   9.402  10.082  0.0122  0.0791 -0.0418
 4746PP      PP14850   8.434   1.601   2.765  0.1041 -0.2081  0.0354
 4747PP      PP14851  12.279   6.246  13.296 -0.2436  0.1357 -0.0700
 4748PP      PP14852   3.849  14.617   2.451 -0.1827 -0.0286  0.1487
 4749PP      PP14853   7.969   7.984   1.218  0.2814  0.0449  0.0587
 4750PP      PP14854  10.854   4.965  12.621  0.1035 -0.0237  0.0963
 4751PP      PP14855   4.699   6.989   9.381 -0.0692 -0.3808 -0.1921
 4752PP      PP14856  10.733   6.924   9.667  0.2667 -0.0773  0.3120
 4753PP      PP14857  11.428  13.534   2.329 -0.2715  0.3258 -0.1328
 4754PP      PP14858   9.257   9.580   2.403  0.1857 -0.1365  0.0184
 4755PP      PP14859   7.281   7.130   1.493 -0.1197  0.0565  0.0199
 4756PP      PP14860   5.158   8.184  11.110  0.3411  0.0708 -0.0283
 4757PP      PP14861   4.339   6.657   8.943 -0.1894  0.3006 -0.4783
 4758PP      PP14862  15.245  11.177   0.575 -0.3158  0.1981  0.1791
 4759PP      PP14863  11.309   1.969  11.526  0.1893 -0.2503  0.1617
 4760PP      PP14864   3.695   7.567   8.587  0.1171  0.0168  0.2039
 4761PP      PP14865   1.749   7.295   2.550  0.5239  0.1572 -0.0465
 4762PP      PP14866   1.747  11.267   2.379  0.1071 -0.0503 -0.0573
 4763PP      PP14867  11.224  12.691  13.098  0.3580  0.2484  0.0788
 4764PP      PP14868   3.560  11.888  13.060  0.0763  0.2104  0.2617
 4765PP      PP14869   0.770   7.976  11.859 -0.1682 -0.2467 -0.1275
 4766PP      PP14870   4.933  10.913   2.874  0.1345  0.4710 -0.3465
 4767PP      PP14871  10.122   9.497   2.207 -0.1027 -0.3213 -0.2355
 4768PP      PP14872  12.214  11.327   3.459  0.2866 -0.1400 -0.2280
 4769PP      PP14873   3.883   5.380  11.182  0.0847  0.2034  0.0256
 4770PP      PP14874   3.604   8.621  11.598  0.0851  0.1272  0.1680
 4771PP      PP14875   0.046  10.037   8.736  0.0533  0.0734  0.2316
 4772PP      PP14876   3.181   6.114   9.894 -0.1634 -0.4725 -0.0640
 4773PP      PP14877   6.111   6.372   0.210  0.1260 -0.0616  0.0554
 4774PP      PP14878   5.989  10.256   9.867  0.2478 -0.0285 -0.1073
 4775PP      PP14879  13.556  15.439   2.987 -0.1681  0.0900  0.2380
 4776PP      PP14880   7.959   3.970   4.186 -0.0983 -0.0597  0.2852
 4777PP      PP14881   7.960  14.711   1.447 -0.0506  0.0828 -0.0200
 4778PP      PP14882   9.267   4.315  12.435  0.1118 -0.0400  0.2795
 4779PP      PP14883   7.429   1.849  12.881 -0.4341 -0.0953 -0.1468
 4780PP      PP14884  15.200  13.970  10.306  0.2045  0.0686  0.1484
 4781PP      PP14885  15.672  12.199  10.824 -0.1644  0.2148  0.0688
 4782PP      PP14886   2.336  10.489  10.830 -0.2720 -0.2855  0.1196
 4783PP      PP14887  11.739   9.425  12.095  0.0711  0.2412  0.0528
 4784PP      PP14888   2.250   6.603   2.176 -0.0627 -0.1654  0.0877
 4785PP      PP14889   0.148   0.592   8.970  0.1820  0.1609  0.1611
 4786PP      PP14890   6.313   7.959   9.534  0.0012  0.1081  0.2429
 4787PP      PP14891  10.995   5.424  11.650 -0.0469 -0.1358  0.2818
 4788PP      PP14892   4.886   6.617  13.278 -0.3094  0.1609 -0.0423
 4789PP      PP14893  13.757  15.127   9.283  0.2830 -0.0528 -0.0106
 4790PP      PP14894  15.247   0.844   4.031  0.1878 -0.1249 -0.0011
 4791PP      PP14895   8.086  13.743  12.465 -0.1969 -0.0143 -0.3142
 4792PP      PP14896  14.280   5.951  11.401  0.3845 -0.1425  0.0236
 4793PP      PP14897   7.524   1.261   5.052  0.0480 -0.3495 -0.0968
 4794PP      PP14898   5.102   0.081  11.724 -0.0317  0.5034 -0.0115
 4795PP      PP14899  14.002   9.936   3.954  0.1983  0.0368 -0.2582
 4796PP      PP14900  15.868  10.873   1.317 -0.1521  0.1918  0.0004
 4797PP      PP14901   8.429   7.244   1.978 -0.0796 -0.0285 -0.3706
 4798PP      PP14902   2.923   6.640   2.244 -0.0875 -0.1168  0.0640
 4799PP      PP14903  14.247   6.794  13.238 -0.0134  0.2831 -0.3008
 4800PP      PP14904  15.825   4.549  10.935 -0.1391 -0.2876  0.1606
 4801PP      PP14905   4.496  10.730   4.552 -0.0548 -0.0603 -0.0814
 4802PP      PP14906  13.747   8.054   8.112 -0.1617 -0.0990 -0.0074
 4803PP      PP14907   2.367   0.456   2.430 -0.0153 -0.0178  0.1598
 4804PP      PP14908   5.374   2.365   2.663  0.3609  0.1177  0.1417
 4805PP      PP14909  12.977   8.320  11.746  0.2878 -0.3626 -0.0280
 4806PP      PP14910   1.517   4.017  10.772  0.2701 -0.0639 -0.1086
 4807PP      PP14911   7.038  10.843  13.327 -0.2072 -0.2070 -0.1685
 4808PP      PP14912   2.785   7.159   8.953 -0.1511 -0.2245 -0.1642
 4809PP      PP14913   0.662   4.550  10.292  0.1106  0.0994 -0.1537
 4810PP      PP14914   1.395   8.504   0.276 -0.0078 -0.1959  0.1871
 4811PP      PP14915   9.676   4.195  10.994  0.1020 -0.1004 -0.2363
 4812PP      PP14916   2.664   0.460  13.050 -0.0164  0.2709 -0.1873
 4813PP      PP14917  14.588   5.519   0.113  0.0914 -0.0858  0.2792
 4814PP      PP14918   0.047  12.011   2.309 -0.0277 -0.1967 -0.1821
 4815PP      PP14919   2.467  15.451   3.977 -0.1157  0.0405  0.1331
 4816PP      PP14920   9.840  10.128   3.344  0.2034  0.0126 -0.1284
 4817PP      PP14921   7.915   8.902  11.120  0.1947  0.0554  0.2990
 4818PP      PP14922  12.222  15.749  12.668 -0.0997 -0.1584 -0.0505
 4819PP      PP14923   7.048   7.511   2.330 -0.0372 -0.0258  0.0788
 4820PP      PP14924  10.181  13.192  10.575  0.0851 -0.2470  0.1443
 4821PP      PP14925  15.683  13.258   0.875  0.1056  0.0756 -0.0095
 4822PP      PP14926  13.772  10.124   3.423  0.1135  0.0289 -0.0965
 4823PP      PP14927   7.003   0.469  13.156 -0.0213  0.0477 -0.0566
 4824PP      PP14928  12.620   7.010   8.606 -0.1061  0.0088 -0.1176
 4825PP      PP14929   5.235  12.535   4.049 -0.2045 -0.0174 -0.0824
 4826PP      PP14930   6.225  14.759  11.484  0.0182  0.1359 -0.1780
 4827PP      PP14931   5.102  13.718   1.918 -0.0058 -0.0041 -0.1221
 4828PP      PP14932  12.330  10.832   1.173 -0.0462 -0.1252  0.2283
 4829PP      PP14933   2.830   3.756  11.985  0.3330 -0.0645 -0.2967
 4830PP      PP14934   3.031  11.410   9.476 -0.2082 -0.1979  0.1838
 4831PP      PP14935   9.218   5.052  10.169  0.0495  0.2610  0.1893
 4832PP      PP14936  13.861  10.910   9.218  0.0968 -0.3859 -0.0011
 4833PP      PP14937   9.444   3.211   2.575 -0.0877  0.3891  0.2159
 4834PP      PP14938   3.877   8.592   1.073  0.0011 -0.0418 -0.1811
 4835PP      PP14939   9.978   8.198  12.022  0.4058  0.0746  0.0418
 4836PP      PP14940   8.839   4.026   9.601  0.1594 -0.0347  0.2400
 4837PP      PP14941   5.519   7.254  12.013 -0.1114  0.1817 -0.2370
 4838PP      PP14942   7.801   6.709   3.255  0.3054  0.1105 -0.0831
 4839PP      PP14943   5.797  14.930  10.291  0.1002 -0.0953  0.2307
 4840PP      PP14944   6.528   4.443  12.587 -0.2762  0.0326  0.3129
 4841PP      PP14945   3.769  14.836   1.508 -0.1534 -0.2170  0.0564
 4842PP      PP14946   9.501   4.084   0.658 -0.0875 -0.0499 -0.2298
 4843PP      PP14947   8.819  11.137  11.519  0.0417 -0.1667  0.2314
 4844PP      PP14948   3.071   7.772   0.809 -0.3398  0.1822 -0.1082
 4845PP      PP14949   4.131   6.223   4.541  0.1762  0.2898 -0.0036
 4846PP      PP14950   7.534  11.603  11.217  0.0773  0.1014 -0.0246
 4847PP      PP14951  11.473   7.959   2.497  0.3514  0.0504  0.1803
 4848PP      PP14952  11.412   3.190   3.665 -0.0714 -0.0959 -0.1342
 4849PP      PP14953   5.221  15.390   0.669  0.0443  0.3293 -0.3544
 4850PP      PP14954   9.118   7.721   2.848  0.1484  0.0999  0.0332
 4851PP      PP14955  15.243  13.583   0.273 -0.2111  0.0143 -0.2699
 4852PP      PP14956  11.642   5.142   1.108  0.0251  0.2082  0.0072
 4853PP      PP14957   0.719  10.727   3.106  0.0237 -0.3482 -0.2851
 4854PP      PP14958   2.297   2.467   1.826  0.1413  0.2749 -0.1129
 4855PP      PP14959   6.150  13.014  13.299  0.3981 -0.1192  0.1439
 4856PP      PP14960   1.991   2.944   0.280  0.1946 -0.2684 -0.1299
 4857PP      PP14961   2.392  11.265   9.968 -0.1137 -0.1495 -0.1414
 4858PP      PP14962  13.431   9.232  12.989  0.3331  0.2752 -0.2692
 4859PP      PP14963  12.661   6.333   9.290 -0.0941  0.0385 -0.0132
 4860PP      PP14964  14.304   3.610   3.580 -0.1607  0.0627 -0.1914
 4861PP      PP14965   4.499  14.272   1.524 -0.1201 -0.0112  0.3467
 4862PP      PP14966   8.457   3.723  10.485  0.0972  0.2885  0.1690
 4863PP      PP14967  14.972   4.258   9.266  0.0399  0.2420 -0.0813
 4864PP      PP14968  11.845   0.974   1.546 -0.0690 -0.4737 -0.1330
 4865PP      PP14969   3.027  14.803  10.690  0.0004 -0.0860  0.1646
 4866PP      PP14970  11.763   7.522   3.293  0.0447  0.0555  0.1342
 4867PP      PP14971   3.532   9.402   0.055 -0.0766 -0.1643 -0.2602
 4868PP      PP14972  14.061  11.437   9.785  0.3362  0.0062 -0.1850
 4869PP      PP14973   1.340   9.348   1.301 -0.2315 -0.0134 -0.0616
 4870PP      PP14974   8.425   0.372   3.268  0.0929  0.1622 -0.4096
 4871PP      PP14975   9.796   7.332   2.232 -0.0798  0.0564  0.2575
 4872PP      PP14976   6.572   6.308  10.173 -0.0483 -0.0480 -0.3313
 4873PP      PP14977   4.149   7.549   3.245 -0.1164  0.1923  0.0811
 4874PP      PP14978   3.032  10.282   0.220  0.0686  0.0770  0.1846
 4875PP      PP14979  11.544   3.492  13.537 -0.1855  0.1314 -0.0605
 4876PP      PP14980   2.025  13.908  10.666 -0.2295 -0.0203 -0.0317
 4877PP      PP14981   0.547   5.402  13.391  0.1186 -0.0991 -0.0608
 4878PP      PP14982  14.301   9.301   4.642  0.2786  0.3282  0.1130
 4879PP      PP14983   0.680  12.909  13.318 -0.1404  0.1301  0.1927
 4880PP      PP14984   7.118  12.965   4.571 -0.0806 -0.0484 -0.3096
 4881PP      PP14985   7.546   8.650  11.442  0.1137  0.0085  0.0842
 4882PP      PP14986   8.692   3.890  11.995 -0.2391 -0.2549  0.1222
 4883PP      PP14987   0.538  15.361   1.189  0.3217 -0.1511 -0.2700
 4884PP      PP14988   4.782   7.049  10.275  0.0359  0.2448  0.0619
 4885PP      PP14989   0.828  10.914   0.889  0.0168 -0.1088  0.2756
 4886PP      PP14990   7.188   0.350   4.813 -0.1841  0.4938 -0.0637
 4887PP      PP14991  10.381  11.887  10.610  0.0857  0.0235 -0.1820
 4888PP      PP14992  12.170   0.035   4.427  0.0098 -0.2975 -0.0002
 4889PP      PP14993   8.110   4.243   2.561 -0.0385  0.2068  0.1179
 4890PP      PP14994  10.972   1.620  11.725  0.0917 -0.1027 -0.0095
 4891PP      PP14995   6.799  12.680   0.476 -0.2445  0.3464  0.0913
 4892PP      PP14996  11.149   3.198   3.132  0.0645  0.0040 -0.0917
 4893PP      PP14997  10.762   7.888   7.961  0.2439 -0.0490  0.3040
 4894PP      PP14998   3.683   0.361   1.869  0.2762 -0.0392  0.1938
 4895PP      PP14999   2.305   7.748  13.242 -0.2050 -0.0944 -0.2377
 4896PP      PP15000  10.531  12.780  13.075  0.0782 -0.0856  0.1394
 4897PP      PP15001   5.146   8.023   3.090  0.1016 -0.3256  0.3103
 4898PP      PP15002  10.899   5.246   8.181 -0.0379 -0.0843 -0.1628
 4899PP      PP15003  15.732   1.354  11.669 -0.0184 -0.3378 -0.1480
 4900PP      PP15004   3.136  12.691   0.580  0.0178 -0.1161 -0.1993
 4901PP      PP15005  15.234   1.398   3.900 -0.2679 -0.4964 -0.4347
 4902PP      PP15006   3.709  13.695  12.570 -0.1367  0.3026 -0.0011
 4903PP      PP15007   1.609   9.303  12.670  0.1311  0.2576 -0.0831
 4904PP      PP15008   4.077  12.222  11.531 -0.1308  0.1620 -0.0561
 4905PP      PP15009   3.326  13.166  12.529 -0.1622 -0.1148 -0.0708
 4906PP      PP15010  12.536  14.002   9.197  0.2177 -0.0069 -0.0003
 4907PP      PP15011  13.657   6.266  12.444 -0.2562  0.0431 -0.2062
 4908PP      PP15012   5.403   9.007   0.533  0.2152  0.0420 -0.2214
 4909PP      PP15013  12.141   1.681   1.502 -0.3040  0.0669 -0.4488
 4910PP      PP15014   7.941  15.858   0.416  0.0269  0.1492 -0.1766
 4911PP      PP15015   8.187   2.875   0.843  0.0994  0.0038 -0.1679
 4912PP      PP15016   6.208   3.230  10.573 -0.1827  0.0519  0.1261
 4913PP      PP15017   6.715   2.426   4.562 -0.1949 -0.0226 -0.2488
 4914PP      PP15018  10.525  13.442   2.626  0.1857 -0.0775 -0.3367
 4915PP      PP15019  11.113   2.893  11.335 -0.1726 -0.1533 -0.0302
 4916PP      PP15020   7.193   7.371   3.898  0.2790 -0.2180 -0.0500
 4917PP      PP15021   0.654   3.333   8.911 -0.2584 -0.0502 -0.0616
 4918PP      PP15022  15.289   2.952   3.639 -0.2363 -0.1073 -0.1028
 4919PP      PP15023   5.829   4.836   8.543 -0.1925  0.0416  0.1594
 4920PP      PP15024  13.551   8.764  13.268 -0.1867 -0.0966 -0.0054
 4921PP      PP15025   8.913  11.832   4.427  0.1421  0.1296  0.3918
 4922PP      PP15026   6.642  14.224   2.530  0.0364  0.0201  0.0567
 4923PP      PP15027   8.620   0.564  11.600 -0.0981 -0.0656 -0.1235
 4924PP      PP15028   7.329   5.151   9.825 -0.5090 -0.0720 -0.2600
 4925PP      PP15029   5.376   4.177  12.501  0.0243 -0.3689 -0.0213
 4926PP      PP15030   6.474  11.057  11.126 -0.0670 -0.0332 -0.3625
 4927PP      PP15031   0.405   9.122   2.583 -0.1322 -0.2922 -0.0627
 4928PP      PP15032   7.326   0.830   4.854  0.0327 -0.0170  0.0144
 4929PP      PP15033   2.002   2.625  11.903 -0.0526  0.2069 -0.2087
 4930PP      PP15034   3.683  14.447  11.002 -0.1365  0.0281  0.0957
 4931PP      PP15035  12.727   1.849   2.696 -0.3492  0.0185 -0.1357
 4932PP      PP15036   7.435  10.821  12.607 -0.2221  0.1854  0.1235
 4933PP      PP15037   8.338  11.537  10.037  0.0708 -0.1190 -0.0810
 4934PP      PP15038  12.622   3.925   1.629 -0.1119  0.1544  0.1845
 4935PP      PP15039   8.799   1.247  11.795  0.1500  0.2263 -0.0563
 4936PP      PP15040   5.029   0.938   1.814 -0.0721 -0.3215 -0.2563
 4937PP      PP15041  10.009  14.451  11.459 -0.0859  0.2764  0.4666
 4938PP      PP15042   8.483  11.048  13.258 -0.2567 -0.1813  0.0438
 4939PP      PP15043  15.789   6.607   2.120 -0.0450 -0.1842 -0.1964
 4940PP      PP15044  13.511  14.114   0.327  0.0895 -0.5246  0.0162
 4941PP      PP15045  14.430  15.519  10.809 -0.2036 -0.0830  0.1536
 4942PP      PP15046  11.986  10.896   3.177  0.1968  0.0842  0.3230
 4943PP      PP15047  13.543   1.980   4.390 -0.2179 -0.1263  0.0467
 4944PP      PP15048   7.539   1.095   3.509 -0.1327 -0.1099  0.0160
 4945PP      PP15049   0.711   5.627   0.323  0.3172  0.0249  0.0772
 4946PP      PP15050  13.049   6.799  10.097  0.2013  0.3627  0.0888
 4947PP      PP15051   7.310   8.934   1.909  0.1086 -0.3103  0.0374
 4948PP      PP15052   4.915  11.293  13.018 -0.0155  0.5838  0.4220
 4949PP      PP15053   8.681  11.668  11.472 -0.1314  0.1218 -0.0714
 4950PP      PP15054  10.701   4.713   0.657  0.1827 -0.0505  0.0804
 4951PP      PP15055  15.431  10.367   8.636  0.1462 -0.0595 -0.0885
 4952PP      PP15056   7.606  10.250   0.207 -0.2526  0.1712  0.0397
 4953PP      PP15057   9.849   0.202   3.546 -0.1949 -0.3351 -0.1176
 4954PP      PP15058   6.254   3.296   4.517  0.1320  0.1085  0.0184
 4955PP      PP15059   5.980  11.364  10.749  0.0818 -0.0579  0.0184
 4956PP      PP15060   9.825   6.719  10.352 -0.3061  0.2247 -0.2043
 4957PP      PP15061  10.865  12.011  12.761  0.0903 -0.0880  0.0469
 4958PP      PP15062  12.318   2.040   0.844  0.0756  0.0098  0.1666
 4959PP      PP15063   1.384   0.653  13.022 -0.0431  0.2627 -0.1517
 4960PP      PP15064   3.232   5.098   3.160  0.0462  0.1265 -0.0463
 4961PP      PP15065   9.857  12.640  13.257 -0.3480 -0.1218 -0.1550
 4962PP      PP15066  11.280   0.918  12.538 -0.1016 -0.1832 -0.0920
 4963PP      PP15067  13.079   5.923   9.590  0.0302  0.1724  0.0544
 4964PP      PP15068   3.571   9.730   2.491 -0.1659  0.3037  0.0280
 4965PP      PP15069  14.223   9.961   3.000 -0.2777  0.3317 -0.0351
 4966PP      PP15070  11.931   7.376   2.757 -0.1267  0.0849  0.0196
 4967PP      PP15071   9.003  15.759  11.454  0.1326  0.2268 -0.2316
 4968PP      PP15072   6.258  11.162   3.382  0.1598  0.0839 -0.1506
 4969PP      PP15073  10.522   1.925  13.503  0.1865 -0.2034  0.2589
 4970PP      PP15074  11.355  13.700  13.346  0.1935 -0.0855 -0.3402
 4971PP      PP15075   9.691   6.440   8.379 -0.1207  0.4992  0.1509
 4972PP      PP15076   1.978   8.679  12.385 -0.0448  0.0237 -0.2571
 4973PP      PP15077   5.078   8.380   4.424 -0.2174 -0.0665  0.1287
 4974PP      PP15078   0.527   1.755  11.038  0.0569  0.3499 -0.0426
 4975PP      PP15079   1.800  12.409  12.724  0.3813  0.0386  0.0283
 4976PP      PP15080  14.102  15.502   9.597 -0.1255 -0.0000 -0.1969
 4977PP      PP15081   6.641   2.526   5.033  0.1327  0.0980  0.1590
 4978PP      PP15082  13.103  10.572  13.422 -0.0621  0.1743 -0.3477
 4979PP      PP15083  13.629   3.497   3.121  0.1772 -0.6682 -0.1804
 4980PP      PP15084   8.231  13.829  11.485  0.1624 -0.1317 -0.0842
 4981PP      PP15085   8.787  14.901   1.170 -0.2007  0.1322  0.1716
 4982PP      PP15086   3.072  14.867   3.216  0.1396  0.1559  0.1351
 4983PP      PP15087  15.698   1.155  12.212  0.1811  0.3160 -0.1904
 4984PP      PP15088  14.367   1.633   0.263  0.1811  0.0818  0.1512
 4985PP      PP15089   0.009  11.860   1.175 -0.0257 -0.0294 -0.0172
 4986PP      PP15090   1.947  13.087  11.794 -0.0811 -0.1651 -0.1473
 4987PP      PP15091   5.149  11.204   3.231  0.2718 -0.2101 -0.1405
 4988PP      PP15092   2.521   6.261   9.006  0.0446 -0.0512  0.0772
 4989PP      PP15093   1.531   7.628  11.682  0.2650 -0.1391 -0.1149
 4990PP      PP15094   4.612  15.566  10.820 -0.3497 -0.0362 -0.0716
 4991PP      PP15095   5.124   2.220   3.062  0.0456  0.2658 -0.0790
 4992PP      PP15096  12.637  14.319   2.013  0.1828  0.1098 -0.1578
 4993PP      PP15097   0.794   0.534   2.152  0.1543 -0.4148 -0.0998
 4994PP      PP15098   2.340   5.431  13.310 -0.1430 -0.1651 -0.1139
 4995PP      PP15099   0.382   2.083   9.280  0.3406 -0.0311 -0.0531
 4996PP      PP15100  15.508   6.721  10.417  0.2316 -0.2245 -0.0126
 4997PP      PP15101   4.039  15.480  11.590 -0.0920  0.0141  0.1675
 4998PP      PP15102   2.798  13.593   9.958  0.1245  0.1880 -0.0451
 4999PP      PP15103  11.294   5.355   9.547  0.2784  0.0042 -0.0641
 5000PP      PP15104   8.408   0.228   0.462 -0.3735  0.0480 -0.0949
 5001PP      PP15105   3.830  15.221   9.377  0.1343 -0.1125  0.0010
 5002PP      PP15106   5.408   4.275   4.427 -0.0435  0.1109 -0.1036
 5003PP      PP15107   5.620   7.110  12.828 -0.1782 -0.1589  0.1571
 5004PP      PP15108   4.231  12.012   3.353  0.4134 -0.1304  0.0550
 5005PP      PP15109  13.309   5.850  12.220  0.1578  0.1233  0.0534
 5006PP      PP15110   9.461  14.241   9.676  0.0088  0.0148 -0.1902
 5007PP      PP15111  12.833  14.710  13.527  0.2143  0.1799  0.0200
 5008PP      PP15112  12.824   7.258   8.146 -0.0242  0.0464  0.0672
 5009PP      PP15113   4.592  13.958   2.765  0.0317  0.0444 -0.1673
 5010PP      PP15114  10.421  14.560  11.004 -0.0824 -0.1511  0.1215
 5011PP      PP15115  13.254   5.516  10.753 -0.1175  0.3000 -0.2660
 5012PP      PP15116   1.656  15.856   2.616  0.1384 -0.0815 -0.1813
 5013PP      PP15117   3.058  12.955   2.704 -0.2001 -0.0053 -0.3101
 5014PP      PP15118  11.681  15.217   2.068  0.2070 -0.0740  0.1107
 5015PP      PP15119   2.681  12.726  13.107  0.1920 -0.2639  0.1214
 5016PP      PP15120  13.211   2.066   2.631  0.0810  0.0723  0.2173
 5017PP      PP15121   2.957   4.465   4.441 -0.1331  0.3184  0.1995
 5018PP      PP15122   7.968  10.283  10.975  0.2572  0.2421  0.2027
 5019PP      PP15123   2.910  15.826  12.864 -0.2276 -0.1741  0.0071
 5020PP      PP15124   1.304   3.336  13.399 -0.2650  0.1052  0.0828
 5021PP      PP15125   6.003   1.768   1.785  0.3971  0.1293 -0.1986
 5022PP      PP15126  10.774  15.649   1.635  0.2957  0.1231  0.2774
 5023PP      PP15127  13.998  12.756  12.678  0.0147 -0.1399 -0.1710
 5024PP      PP15128  14.994   3.297   9.499 -0.1605  0.3275 -0.1872
 5025PP      PP15129  12.508  14.842   4.116  0.1787  0.0982 -0.2521
 5026PP      PP15130   2.052   7.902   1.864 -0.1680 -0.0598  0.0573
 5027PP      PP15131   9.532   3.776  10.214  0.1892 -0.0292  0.0888
 5028PP      PP15132  10.218   2.411   3.693 -0.0827 -0.1678 -0.2660
 5029PP      PP15133   5.793   0.257   3.372 -0.1308  0.1094 -0.1135
 5030PP      PP15134   4.270   9.254   3.198  0.0089  0.1938  0.1989
 5031PP      PP15135  13.595   6.536   7.733 -0.2123  0.3556  0.0091
 5032PP      PP15136   7.878   5.222   3.499  0.0913  0.0580  0.0514
 5033PP      PP15137   3.548  12.094   0.046  0.0912 -0.1455 -0.2264
 5034PP      PP15138   3.482  11.574   9.631  0.0972 -0.1322  0.1466
 5035PP      PP15139   3.555  14.095  11.293  0.1224  0.2077 -0.4366
 5036PP      PP15140   9.687   2.290   2.565 -0.1528  0.1088 -0.0332
 5037PP      PP15141   4.388   0.647  10.713 -0.0217  0.0821  0.0969
 5038PP      PP15142  12.721   2.876  10.517 -0.0492 -0.1037  0.1711
 5039PP      PP15143   7.245   9.820  12.491 -0.2270 -0.1077 -0.0950
 5040PP      PP15144  13.429   9.306   1.504 -0.2517 -0.2288 -0.1184
 5041PP      PP15145  14.434  11.949  12.979 -0.3152 -0.1101 -0.2690
 5042PP      PP15146   8.664  14.427   9.155  0.0291  0.0424 -0.1498
 5043PP      PP15147  11.608  10.014  12.410  0.2705  0.0809  0.1204
 5044PP      PP15148   0.104   0.056   8.890  0.1000  0.2361  0.1146
 5045PP      PP15149  13.338   2.917   4.082  0.4511 -0.2853 -0.1237
 5046PP      PP15150  10.045   2.281   9.907  0.1379  0.1560 -0.0095
 5047PP      PP15151  11.046  15.886  12.600 -0.5294 -0.3180 -0.3157
 5048PP      PP15152  10.183  14.167  11.863  0.1740 -0.0492  0.2310
 5049PP      PP15153   7.873  15.351   9.823 -0.0745  0.0226 -0.0811
 5050PP      PP15154   9.274  11.111  12.643 -0.2102 -0.1359 -0.0899
 5051PP      PP15155  15.039   9.521   3.039  0.4659 -0.0186  0.1195
 5052PP      PP15156  15.089  11.202  12.354 -0.0498  0.0643 -0.1082
 5053PP      PP15157   1.030   3.594  13.028 -0.1662  0.1457  0.2985
 5054PP      PP15158  13.867   4.837   1.434  0.0623 -0.2835  0.0548
 5055PP      PP15159   2.160   1.421   1.428 -0.0374 -0.1092  0.0334
 5056PP      PP15160   4.762  12.351  11.925  0.2248  0.0434 -0.0304
 5057PP      PP15161   1.770   5.706   9.995  0.0747 -0.1099 -0.1106
 5058PP      PP15162  14.463   2.885  11.596 -0.0472 -0.1950  0.1415
 5059PP      PP15163  15.815  12.225   1.487 -0.0650  0.0627 -0.1527
 5060PP      PP15164  15.459   8.045   3.924 -0.1959 -0.3487  0.0215
 5061PP      PP15165  15.601   0.082  12.134 -0.1352 -0.5542  0.1501
 5062PP      PP15166  12.636   5.681   9.784 -0.0633 -0.2480  0.1022
 5063PP      PP15167  12.719  11.063   9.340 -0.0318 -0.1840  0.3567
 5064PP      PP15168   0.987  10.887   1.384 -0.2746  0.2179 -0.2194
 5065PP      PP15169   7.082  15.254   5.076 -0.2821  0.1336  0.2949
 5066PP      PP15170  10.664   4.971   0.167  0.1077  0.0064 -0.1272
 5067PP      PP15171   8.876   4.703  12.410 -0.0447 -0.1396  0.2293
 5068PP      PP15172   9.250   4.629  12.826 -0.1617 -0.0087  0.0437
 5069PP      PP15173  13.000   7.627   0.679  0.1143 -0.2250 -0.0643
 5070PP      PP15174  10.791   5.067  10.799 -0.0847 -0.2691 -0.0346
 5071PP      PP15175   1.143  12.073   4.092 -0.0670  0.0456 -0.1021
 5072PP      PP15176   3.526  13.951  12.212  0.2101 -0.1003  0.1242
 5073PP      PP15177   2.812  12.058   1.589 -0.0087  0.2084  0.3077
 5074PP      PP15178  11.912  14.428  13.304 -0.0685 -0.2993  0.0257
 5075PP      PP15179   9.993  13.317  11.569 -0.0172 -0.2270  0.0846
 5076PP      PP15180   1.997  11.648  11.694 -0.1215 -0.0636  0.0483
 5077PP      PP15181   4.487   0.800  12.093 -0.0727  0.0195  0.1060
 5078PP      PP15182   4.303  14.240   9.006 -0.2905  0.1137 -0.1200
 5079PP      PP15183   5.730  10.324   8.706 -0.2254  0.2514  0.0465
 5080PP      PP15184   6.786   8.779   3.405  0.2027  0.0345  0.1102
 5081PP      PP15185  11.819  11.809  10.564 -0.3970 -0.1060 -0.0144
 5082PP      PP15186   9.576  12.929   1.052 -0.1469 -0.1811  0.0120
 5083PP      PP15187   7.414  15.253  12.101 -0.0708  0.2224 -0.2530
 5084PP      PP15188   5.644   6.112  10.453 -0.1157  0.2160  0.1752
 5085PP      PP15189   6.254   7.848   0.887  0.0440 -0.0702  0.0615
 5086PP      PP15190   1.507   9.933  12.165 -0.0197  0.3572  0.2280
 5087PP      PP15191   8.235   4.947   0.675  0.1892 -0.0840  0.2024
 5088PP      PP15192  15.063  15.187   9.760 -0.3140  0.1322  0.1954
 5089PP      PP15193   0.814   4.553   4.201  0.4058 -0.0523 -0.2353
 5090PP      PP15194   0.466   7.248   8.389 -0.1487 -0.2335 -0.0839
 5091PP      PP15195   2.909   7.859   2.198  0.1352 -0.0830 -0.3160
 5092PP      PP15196   7.703   0.854   3.958 -0.3793  0.3605  0.0265
 5093PP      PP15197  13.081   9.319   0.957  0.0548 -0.0305  0.1029
 5094PP      PP15198   4.641   2.056   1.378  0.0862  0.1185  0.1487
 5095PP      PP15199   5.654   3.900  11.723  0.0075 -0.1774  0.1070
 5096PP      PP15200   6.627   1.154   0.550 -0.2139 -0.1515  0.1879
 5097PP      PP15201  14.590   4.245   3.722  0.2280  0.2899  0.1615
 5098PP      PP15202  10.704  12.476   2.770 -0.0713 -0.0340 -0.0087
 5099PP      PP15203   3.764  11.637  10.049  0.2187 -0.1750  0.0761
 5100PP      PP15204   3.165   6.050  13.053 -0.2132 -0.1021 -0.2085
 5101PP      PP15205  12.040   8.801  13.080  0.0332 -0.0552 -0.0386
 5102PP      PP15206   4.247   5.762   0.744 -0.2989 -0.0959 -0.4607
 5103PP      PP15207  15.465  12.225  11.311 -0.0075  0.0575 -0.1954
 5104PP      PP15208  11.860   7.842   7.701 -0.0226 -0.0320 -0.0937
 5105PP      PP15209   6.919   5.407   3.239 -0.1217  0.2595 -0.2832
 5106PP      PP15210   4.347  12.236  11.081 -0.1763  0.2692  0.3001
 5107PP      PP15211  15.175  11.386  10.136 -0.0247  0.3525  0.3570
 5108PP      PP15212   6.527  10.870   2.902  0.0646 -0.0508  0.0073
 5109PP      PP15213  10.869   3.445   1.117  0.0048 -0.0189 -0.1618
 5110PP      PP15214   1.604   4.622  11.614  0.0272  0.0969  0.1083
 5111PP      PP15215   9.119  13.425   0.980 -0.0949  0.0814 -0.2097
 5112PP      PP15216   7.962  10.652  10.148 -0.2750  0.4136  0.1483
 5113PP      PP15217   7.738   0.506   1.752  0.1405  0.1632  0.3041
 5114PP      PP15218   3.990  15.270  12.062  0.0584 -0.4322 -0.2287
 5115PP      PP15219   9.926   8.123   3.322  0.1520  0.1369  0.0934
 5116PP      PP15220   1.433  10.540  10.828 -0.4318  0.0205 -0.4610
 5117PP      PP15221   3.659   4.424   1.885  0.0091 -0.1448 -0.1526
 5118PP      PP15222  14.844   8.976   0.736 -0.2914  0.1849 -0.2162
 5119PP      PP15223   3.681   8.308   4.442  0.0639  0.1013  0.1070
 5120PP      PP15224  15.774   9.827  11.495 -0.0326 -0.0115  0.1844
 5121PP      PP15225  10.935   5.659   9.473 -0.0467 -0.1970 -0.0283
 5122PP      PP15226   9.277  11.308   4.328 -0.0428 -0.1125  0.1739
 5123PP      PP15227  15.454  15.283  10.009  0.2165 -0.1280  0.0645
 5124PP      PP15228   8.215   2.490   0.532  0.0467  0.0756 -0.1385
 5125PP      PP15229  11.116  14.461   9.749 -0.2272  0.3496 -0.0367
 5126PP      PP15230   0.113  10.799   4.780 -0.1299  0.0101 -0.0227
 5127PP      PP15231   8.665   4.097   3.727  0.1148  0.0203 -0.3229
 5128PP      PP15232   2.021   3.435  12.958 -0.1380 -0.1681  0.0582
 5129PP      PP15233   2.954  11.706  12.471 -0.2100 -0.3144 -0.3058
 5130PP      PP15234   7.579   3.770  12.836  0.0734  0.0208 -0.1374
 5131PP      PP15235   4.446   3.876  12.801  0.0419  0.2057  0.0552
 5132PP      PP15236   2.782  14.825  11.381  0.2060  0.3343  0.2766
 5133PP      PP15237   1.955   0.690   0.791 -0.1799 -0.0759  0.1185
 5134PP      PP15238   8.246  11.189  12.279  0.1053 -0.0902  0.2293
 5135PP      PP15239  13.786   4.001   8.409 -0.0226  0.1238 -0.2105
 5136PP      PP15240   8.027   4.501  10.670  0.3357 -0.0509  0.3134
 5137PP      PP15241   6.799   2.198   1.833 -0.3829 -0.2718  0.0208
 5138PP      PP15242  13.130   6.654   7.908  0.1356  0.0895  0.0200
 5139PP      PP15243   1.068   3.626   9.800 -0.1439 -0.3092 -0.1681
 5140PP      PP15244   0.167  12.378  12.006 -0.0672  0.2996 -0.0214
 5141PP      PP15245   1.427   2.304  10.963  0.0385  0.3396  0.0310
 5142PP      PP15246  11.422   6.828   8.714 -0.1657  0.2498  0.0010
 5143PP      PP15247   8.492   2.494   4.107 -0.1318 -0.1497 -0.1256
 5144PP      PP15248  11.156   0.401   0.067 -0.0483 -0.1210  0.1831
 5145PP      PP15249   7.114  14.669   0.903  0.1270  0.2443  0.1096
 5146PP      PP15250   1.188  12.151  12.005 -0.4524 -0.1542  0.0082
 5147PP      PP15251  10.430  14.938  11.407 -0.0519  0.0203  0.0862
 5148PP      PP15252   2.314  12.746   9.062 -0.2569  0.0858  0.1320
 5149PP      PP15253   0.671   7.915   9.314  0.3666 -0.0037 -0.2226
 5150PP      PP15254  13.838   5.944   4.078  0.0212  0.1763  0.1944
 5151PP      PP15255   5.964   1.456   0.826  0.2042  0.1816 -0.0460
 5152PP      PP15256  15.254  11.597  11.482  0.0417  0.1176  0.1479
 5153PP      PP15257   4.734   4.667  10.502  0.0699 -0.1821  0.0027
 5154PP      PP15258  13.486   2.578   0.233  0.3210 -0.0668  0.0154
 5155PP      PP15259   5.289   3.904  10.707  0.4478  0.1616  0.2111
 5156PP      PP15260   4.441  11.144  12.662  0.0733 -0.0899  0.0645
 5157PP      PP15261  14.409   2.458   0.942  0.1032  0.5420 -0.0805
 5158PP      PP15262   6.739   4.026  12.254  0.1027 -0.1530 -0.0158
 5159PP      PP15263   7.776   9.547  13.254 -0.0814  0.1742  0.1229
 5160PP      PP15264   7.721   7.156   1.747 -0.1484  0.5118 -0.0193
 5161PP      PP15265   0.142   8.689   0.467 -0.1183  0.1467 -0.1845
 5162PP      PP15266  15.196  10.621   2.404  0.0662 -0.1369  0.1860
 5163PP      PP15267  13.661   9.410  11.579  0.4564 -0.0890  0.3168
 5164PP      PP15268   8.309   0.285   1.351 -0.0934  0.1839 -0.1236
 5165PP      PP15269   4.561   0.686   4.594 -0.0956  0.0418 -0.2373
 5166PP      PP15270  10.441  15.610   0.895 -0.1195  0.0980 -0.0266
 5167PP      PP15271   0.340  10.540  12.777 -0.0923  0.0106 -0.4078
 5168PP      PP15272   5.415   6.455  13.215 -0.1930  0.1533  0.0454
 5169PP      PP15273   5.068   0.024   4.461  0.3157  0.0657 -0.2162
 5170PP      PP15274   0.275   5.023  10.941 -0.0407  0.1150  0.1167
 5171PP      PP15275   6.570  15.832  11.836 -0.0868  0.3214 -0.1829
 5172PP      PP15276  13.189   8.139   3.691 -0.1486  0.0523  0.0995
 5173PP      PP15277   7.188  15.387   2.430 -0.2306  0.1316  0.0198
 5174PP      PP15278   9.434   8.171  11.962  0.0648 -0.2575 -0.2091
 5175PP      PP15279  15.089  10.188  12.410 -0.1419  0.1007 -0.1531
 5176PP      PP15280   2.340   4.019  11.828  0.0255 -0.1164 -0.2904
 5177PP      PP15281  10.985  15.628   2.310  0.0929  0.0973  0.0728
 5178PP      PP15282  11.098   1.017   3.808 -0.2571 -0.1490  0.2601
 5179PP      PP15283   9.327   3.707  12.643  0.2528  0.3022  0.0495
 5180PP      PP15284   6.073  14.352   0.268  0.0123 -0.0809 -0.3526
 5181PP      PP15285   3.476   8.447  10.539 -0.1965  0.2057  0.0423
 5182PP      PP15286  10.353  15.496   1.404  0.0710 -0.0318  0.0714
 5183PP      PP15287   9.523   9.729   1.540 -0.0753  0.3045 -0.0634
 5184PP      PP15288   1.076   2.510   4.684 -0.0491  0.1897  0.1084
 5185PP      PP15289   7.824  10.934   3.761 -0.0361 -0.3535 -0.2253
 5186PP      PP15290  13.078  10.088  12.062 -0.3758  0.2000  0.1736
 5187PP      PP15291   8.772   0.039   3.133  0.0875 -0.0485 -0.0535
 5188PP      PP15292  13.450  10.622   9.870  0.3708  0.1610  0.2070
 5189PP      PP15293  14.580   1.153   2.698 -0.1019  0.1536 -0.0758
 5190PP      PP15294   5.664   7.909   2.867 -0.3224 -0.2549 -0.1829
 5191PP      PP15295   6.847   0.098   9.037 -0.1427  0.3603  0.0946
 5192PP      PP15296  11.122   4.919   0.394  0.2574 -0.2826  0.2758
 5193PP      PP15297  13.561  15.806   2.009 -0.0678 -0.3447  0.2887
 5194PP      PP15298  14.313   3.657  12.500 -0.1163 -0.0556 -0.0871
 5195PP      PP15299  13.987  11.176   3.106 -0.0291 -0.1467  0.2269
 5196PP      PP15300   4.808  13.185  11.199  0.2110 -0.1052 -0.1694
 5197PP      PP15301  13.165  12.622   1.495 -0.4746 -0.2825 -0.0695
 5198PP      PP15302   2.293  12.496   3.132  0.0140  0.0171  0.0682
 5199PP      PP15303  12.816  10.710   4.137  0.1130 -0.0396 -0.1247
 5200PP      PP15304   7.132   5.303  13.444 -0.2012  0.1874 -0.0159
 5201PP      PP15305   8.841   2.691   4.472 -0.0838 -0.0248  0.1391
 5202PP      PP15306  14.028   5.355   1.101 -0.0625 -0.1969 -0.1977
 5203PP      PP15307  15.271   3.727   9.542 -0.0778  0.1743  0.4509
 5204PP      PP15308  11.043  10.330  11.738 -0.3162  0.0647 -0.3398
 5205PP      PP15309   4.301   4.851   0.141  0.0610  0.2444 -0.1714
 5206PP      PP15310   8.573   1.644  11.688  0.1277  0.0823 -0.0496
 5207PP      PP15311   2.925   1.302   0.806  0.0342 -0.1045 -0.4027
 5208PP      PP15312   5.294  12.431  12.744  0.1184 -0.1231 -0.0174
 5209PP      PP15313   3.404  12.078   9.905 -0.0767 -0.0260  0.3831
 5210PP      PP15314  15.651  15.528   3.520 -0.2042 -0.3426 -0.1383
 5211PP      PP15315  11.696  15.402  12.140  0.1890  0.1408  0.1999
 5212PP      PP15316  12.028   7.037  12.934  0.0795  0.1281  0.0673
 5213PP      PP15317  10.318   5.835   8.204  0.1994 -0.1947 -0.2968
 5214PP      PP15318   1.166   3.900   8.522 -0.4134 -0.0917  0.1345
 5215PP      PP15319  11.263   5.993  13.160  0.1649 -0.1330 -0.1068
 5216PP      PP15320   2.555  12.333   2.560  0.1185 -0.1030 -0.1642
 5217PP      PP15321   6.212  13.538   9.996  0.0201  0.1684 -0.0077
 5218PP      PP15322  15.085   2.748   0.270  0.0072 -0.2532 -0.0491
 5219PP      PP15323   7.927  12.323   1.041  0.2154  0.2965 -0.1071
 5220PP      PP15324  13.665  10.449  11.201  0.0036  0.1756 -0.0951
 5221PP      PP15325   0.743  12.448   0.420  0.1021  0.3537 -0.0388
 5222PP      PP15326  14.099   4.203   8.749 -0.0014 -0.4308 -0.0229
 5223PP      PP15327   4.652   3.518   0.365 -0.2114  0.1277 -0.0123
 5224PP      PP15328   2.043  10.701   3.061  0.2207  0.2805  0.1766
 5225PP      PP15329   0.239  10.262   4.021 -0.2245  0.3022  0.1738
 5226PP      PP15330   5.143   4.781   0.712 -0.0167 -0.0808 -0.1317
 5227PP      PP15331   6.096  14.015  10.177  0.3076  0.0338  0.0228
 5228PP      PP15332   2.821  14.401  11.729 -0.1626 -0.0843 -0.0271
 5229PP      PP15333  13.834  13.215   4.288 -0.1778  0.0520 -0.0945
 5230PP      PP15334   0.628  11.638   3.799 -0.4810 -0.2134  0.2580
 5231PP      PP15335   6.370  12.849   1.725 -0.1745 -0.0364 -0.0826
 5232PP      PP15336   3.192  11.471  10.062  0.2621  0.0080  0.1780
 5233PP      PP15337  14.451  10.732   1.967  0.1756  0.2242  0.0292
 5234PP      PP15338   7.255   2.380   1.628  0.0837  0.2450  0.1429
 5235PP      PP15339  10.971   0.300   3.229  0.0843  0.0120 -0.0745
 5236PP      PP15340  13.888  12.924   3.610 -0.1187 -0.0256 -0.3350
 5237PP      PP15341   2.322  13.755   9.966  0.1074  0.1199 -0.1143
 5238PP      PP15342   0.460   6.363   0.843  0.0910  0.0320  0.0758
 5239PP      PP15343   1.464   2.837   0.255  0.4074 -0.3032  0.1004
 5240PP      PP15344  15.522   6.931   3.472 -0.3419 -0.3035 -0.1462
 5241PP      PP15345   1.456  12.247   0.971  0.0571  0.0463 -0.2788
 5242PP      PP15346  14.395   4.378   1.966 -0.0392 -0.0133 -0.0516
 5243PP      PP15347  11.601   5.383   8.043  0.1657  0.2408 -0.2568
 5244PP      PP15348  12.645   1.125   4.402 -0.0469  0.2669  0.1288
 5245PP      PP15349   3.313   6.754   9.563 -0.3836 -0.0559 -0.0946
 5246PP      PP15350   1.128   6.383   3.111  0.0928  0.1393 -0.1501
 5247PP      PP15351   4.708  15.280   8.974 -0.0539 -0.0248  0.2149
 5248PP      PP15352  12.385   3.196  11.694 -0.2198  0.2705  0.0569
 5249PP      PP15353  12.602   7.139   9.894  0.1334 -0.0096  0.1228
 5250PP      PP15354   2.375   4.315   4.124  0.0678 -0.1603 -0.0833
 5251PP      PP15355  10.530  12.253  10.280  0.0196  0.1513  0.1260
 5252PP      PP15356   8.980   3.589   8.969  0.0696  0.1232  0.3025
 5253PP      PP15357   9.163  12.954   1.393  0.1014 -0.0764  0.5035
 5254PP      PP15358   0.285  11.213   1.692  0.2289 -0.0082  0.0317
 5255PP      PP15359   2.118   5.883   2.568 -0.1107 -0.0738 -0.0901
 5256PP      PP15360   7.722   7.985  12.988 -0.0516  0.1399 -0.4159
 5257PP      PP15361   9.102   5.311  10.588 -0.0332  0.0677 -0.2192
 5258PP      PP15362  15.085  15.137  11.874  0.2797 -0.0919  0.0999
 5259PP      PP15363   1.459  13.612   4.381  0.1049  0.1475 -0.1524
 5260PP      PP15364   7.179   9.990   8.648 -0.0375 -0.3447 -0.2913
 5261PP      PP15365   6.150  12.489   9.726  0.6111 -0.0347 -0.0925
 5262PP      PP15366   9.754  12.287  10.815 -0.0226 -0.2182  0.1745
 5263PP      PP15367  13.829   3.924   9.822 -0.0685 -0.2149  0.3125
 5264PP      PP15368   5.381   0.452  13.023  0.0223  0.0512  0.1015
 5265PP      PP15369   0.217   2.370  10.580  0.3028 -0.1156  0.1325
 5266PP      PP15370  10.526   9.458  11.678  0.0671  0.1650 -0.0280
 5267PP      PP15371  13.094  10.590   0.492  0.0476 -0.0564 -0.0954
 5268PP      PP15372  13.479   1.031  12.301 -0.0607 -0.0631  0.3032
 5269PP      PP15373   4.121   3.969  12.240  0.1405 -0.0087  0.1171
 5270PP      PP15374   4.801  12.076  10.300  0.0095  0.0397  0.0964
 5271PP      PP15375   3.708  15.379   9.860  0.0740 -0.0379  0.4427
 5272PP      PP15376  14.981  11.828   2.427  0.0444  0.0997  0.0526
 5273PP      PP15377   5.489  11.563   4.820  0.0327 -0.3977  0.1676
 5274PP      PP15378   6.514   4.114   9.407 -0.0508  0.1856  0.1094
 5275PP      PP15379   4.488  13.354   1.132  0.1791 -0.1679 -0.1385
 5276PP      PP15380  15.805   4.828  12.983 -0.1562  0.2453  0.1896
 5277PP      PP15381   6.041   3.910   9.420 -0.0988 -0.4294 -0.3221
 5278PP      PP15382   0.093  15.480   0.902 -0.2022  0.3792 -0.1146
 5279PP      PP15383  14.103   7.038   3.569 -0.3052 -0.0413  0.0037
 5280PP      PP15384  10.951  10.482   0.649  0.2460  0.0054 -0.0138
 5281PP      PP15385   5.374   3.605  11.154 -0.2143  0.0480  0.0967
 5282PP      PP15386   6.181   8.447  12.600 -0.1315 -0.3113 -0.3781
 5283PP      PP15387   8.393  13.340   4.001 -0.3763 -0.0274 -0.0878
 5284PP      PP15388  13.815  14.056  12.232  0.0274  0.0026 -0.0017
 5285PP      PP15389   6.979   0.067   1.648 -0.4040  0.1377 -0.1155
 5286PP      PP15390   8.061   5.145   9.478  0.0090  0.3555  0.3281
 5287PP      PP15391  12.963  12.874   8.976 -0.1377 -0.4812  0.0553
 5288PP      PP15392  11.579   4.792  10.129 -0.2693  0.1134 -0.0839
 5289PP      PP15393   6.972   0.601   4.490 -0.1451 -0.1500 -0.1436
 5290PP      PP15394  12.776   5.959  11.409 -0.0615 -0.0792  0.3174
 5291PP      PP15395   8.986   7.792   4.104  0.2294  0.1676  0.0849
 5292PP      PP15396   6.908  12.543   1.570 -0.0907 -0.0126  0.0563
 5293PP      PP15397   0.192   5.847   2.788 -0.0969  0.2116 -0.0037
 5294PP      PP15398  15.643   2.972   9.015  0.1275 -0.0251 -0.1836
 5295PP      PP15399  14.874   1.704  10.059 -0.2603 -0.0265  0.2730
 5296PP      PP15400   3.503   1.733  12.783 -0.0818 -0.0697  0.0424
 5297PP      PP15401   1.096   3.142   9.974 -0.0025 -0.3744 -0.0022
 5298PP      PP15402   7.003   0.938  10.122 -0.4552  0.1539  0.5652
 5299PP      PP15403  13.510  13.310   1.140  0.0280  0.0183 -0.3071
 5300PP      PP15404  15.846  14.989  10.294 -0.2640  0.3199  0.0867
 5301PP      PP15405   3.033  15.197  11.216 -0.0210  0.4353 -0.0727
 5302PP      PP15406   4.423   9.497   0.941 -0.0470 -0.0523 -0.1372
 5303PP      PP15407   7.303   9.403   8.862  0.0312 -0.1727 -0.2641
 5304PP      PP15408  10.680   1.484  13.122 -0.0366 -0.0100  0.0978
 5305PP      PP15409  13.664   5.817   2.529  0.1944 -0.1670 -0.0596
 5306PP      PP15410   3.024  10.885   3.707 -0.0419 -0.0723 -0.1360
 5307PP      PP15411   6.275   0.878  12.544 -0.1160 -0.0617  0.0997
 5308PP      PP15412   8.681   0.267  12.373 -0.1877 -0.1226  0.1967
 5309PP      PP15413   7.804   1.362  11.169  0.3164  0.1929  0.0729
 5310PP      PP15414  13.046   3.250  12.833  0.0132  0.1970 -0.2067
 5311PP      PP15415  15.135   7.007   2.844  0.3249  0.1867 -0.3268
 5312PP      PP15416   4.435   3.374   9.866  0.0049  0.1286  0.0778
 5313PP      PP15417  10.122   9.020  11.179  0.1879  0.1874  0.1620
 5314PP      PP15418   9.903   7.281   9.582  0.0616 -0.0929 -0.2329
 5315PP      PP15419   4.214   5.685  10.025 -0.1124 -0.0080 -0.1008
 5316PP      PP15420   6.060  10.284   4.761  0.2795  0.0208  0.1345
 5317PP      PP15421   7.421  13.028  12.085  0.0846 -0.2384  0.0690
 5318PP      PP15422  11.900   6.801   9.807  0.0091 -0.2591 -0.1487
 5319PP      PP15423   9.956  10.674   0.158 -0.0491  0.0843  0.1215
 5320PP      PP15424   8.377  13.441  13.472 -0.4315  0.3006 -0.2471
 5321PP      PP15425  11.584   6.189   0.481 -0.0326  0.1737 -0.1058
 5322PP      PP15426   0.827   9.978   3.352  0.1504 -0.0016  0.0555
 5323PP      PP15427  15.795   4.124  12.204 -0.1429 -0.0131 -0.0558
 5324PP      PP15428   3.238   6.287   2.753  0.1915 -0.1910  0.3732
 5325PP      PP15429   9.048  10.720  10.695 -0.2326 -0.0421 -0.0259
 5326PP      PP15430   1.638  11.626   1.443  0.0168 -0.0460  0.0526
 5327PP      PP15431  15.798   3.748   1.870  0.0637  0.3361 -0.1083
 5328PP      PP15432   5.816   2.540   1.190  0.0831  0.5686  0.0194
 5329PP      PP15433   0.058  11.710   3.042  0.0805 -0.1867 -0.1227
 5330PP      PP15434   6.141  14.507  12.459 -0.0684  0.2855 -0.1153
 5331PP      PP15435   5.467   7.684  10.671  0.1506 -0.0316 -0.0869
 5332PP      PP15436   3.289   9.842   0.373  0.1437 -0.0421 -0.1142
 5333PP      PP15437  11.658   2.166  12.676  0.0956  0.3754  0.2428
 5334PP      PP15438   0.677  15.268  11.335  0.1613  0.0071  0.0297
 5335PP      PP15439   4.329   9.062   2.332  0.1052  0.0091 -0.0140
 5336PP      PP15440   1.514   6.679   4.482  0.0902 -0.2557 -0.1814
 5337PP      PP15441  13.277  11.060   0.037 -0.0434  0.2657  0.1796
 5338PP      PP15442  12.953   0.520  10.185  0.2413 -0.0487 -0.2636
 5339PP      PP15443   0.389   1.053   2.551 -0.1641  0.2647 -0.2307
 5340PP      PP15444   9.649  13.959   3.458 -0.0693  0.0492  0.0930
 5341PP      PP15445   9.756   6.319   1.435  0.1614  0.1631 -0.0020
 5342PP      PP15446  12.351   5.656   2.967 -0.3229  0.5041 -0.0200
 5343PP      PP15447   5.913   1.069   1.232  0.1351  0.2059  0.2027
 5344PP      PP15448   5.390  15.821   1.960  0.0543 -0.2372 -0.0634
 5345PP      PP15449  15.303   0.770  11.270  0.1292  0.1109 -0.0422
 5346PP      PP15450   9.386  13.572  13.432  0.3237 -0.0891  0.1171
 5347PP      PP15451   2.489   3.738   0.117 -0.0544 -0.1158  0.0386
 5348PP      PP15452   5.656   1.933  11.230 -0.2802 -0.0641  0.0102
 5349PP      PP15453   2.616   5.575   0.635 -0.1896  0.1447  0.2530
 5350PP      PP15454   9.652   9.632   0.969 -0.2575  0.0397  0.0868
 5351PP      PP15455   7.782   7.119   2.280 -0.0012 -0.3483 -0.0403
 5352PP      PP15456  13.277   5.746  11.254 -0.1734 -0.0168 -0.0872
 5353PP      PP15457   8.207  11.288   1.296 -0.0999 -0.2311 -0.0511
 5354PP      PP15458   2.792   1.307  13.249  0.0692 -0.1288  0.2384
 5355PP      PP15459  13.074  14.946   2.143  0.1025  0.0281 -0.2965
 5356PP      PP15460  10.427   2.602   4.199 -0.1045  0.0784 -0.3921
 5357PP      PP15461   3.537  15.462  11.431  0.0857  0.2650  0.1113
 5358PP      PP15462   0.214  14.508   1.997  0.0415  0.2240 -0.0700
 5359PP      PP15463  11.388   5.593   8.552  0.0170 -0.2110  0.3753
 5360PP      PP15464  11.014  13.283   9.527 -0.1011  0.0724  0.2678
 5361PP      PP15465  13.855  15.122   4.119 -0.2886  0.2588  0.0250
 5362PP      PP15466  13.631  12.681   1.239 -0.0831 -0.1377  0.2916
 5363PP      PP15467  13.917   9.020  11.864 -0.0054 -0.2691  0.1346
 5364PP      PP15468  15.195  10.778  10.196 -0.0621 -0.0667  0.0977
 5365PP      PP15469   6.259   1.128  11.488  0.0967  0.0299 -0.2595
 5366PP      PP15470  14.853   6.407   2.661 -0.0977  0.0630  0.3295
 5367PP      PP15471  13.999   1.467  11.321 -0.0388 -0.0914 -0.0685
 5368PP      PP15472  14.563   6.936   3.342  0.0600 -0.1707  0.4072
 5369PP      PP15473   4.712   8.494   1.455 -0.1340 -0.1566  0.0916
 5370PP      PP15474   2.152  12.193   0.244 -0.1399 -0.0033  0.1962
 5371PP      PP15475  12.993   8.436   8.963  0.3101  0.0216 -0.0061
 5372PP      PP15476   1.916  10.565  11.141 -0.2662 -0.1774 -0.1470
 5373PP      PP15477   9.048   0.501   9.481 -0.1405 -0.1402  0.0940
 5374PP      PP15478  15.422   3.928   9.003 -0.2185 -0.1750 -0.0610
 5375PP      PP15479   4.420  13.722   3.151  0.1687 -0.2636 -0.5718
 5376PP      PP15480   0.460   5.676  11.874  0.1874  0.2086  0.4800
 5377PP      PP15481   4.085  14.198   0.715 -0.1019 -0.0047  0.0322
 5378PP      PP15482   6.016   5.525   1.485  0.0646 -0.2288 -0.0205
 5379PP      PP15483   1.225   8.303   3.054  0.1253 -0.1563  0.0383
 5380PP      PP15484  13.889   0.608   2.952 -0.1608 -0.0769  0.2907
 5381PP      PP15485   5.288   8.946   2.617  0.1042 -0.1679 -0.2101
 5382PP      PP15486   3.947  10.167   2.426  0.0580 -0.3512 -0.0414
 5383PP      PP15487  13.185   2.430   4.293 -0.0336 -0.1983  0.4123
 5384PP      PP15488   3.640   3.844  12.356 -0.2089 -0.0337  0.0917
 5385PP      PP15489  10.283   4.266   8.913 -0.1486  0.1754  0.2078
 5386PP      PP15490   3.309  13.375   3.003  0.3289  0.2009  0.0327
 5387PP      PP15491  10.541  10.794   1.503 -0.0663 -0.0899 -0.1794
 5388PP      PP15492   1.672  10.522  10.181  0.1461 -0.0282  0.2867
 5389PP      PP15493  14.780   8.295  13.271 -0.2590 -0.0353 -0.1737
 5390PP      PP15494  15.334   4.978   8.097 -0.1177 -0.1274  0.2030
 5391PP      PP15495  11.197   8.587  10.336 -0.1568 -0.2154 -0.0730
 5392PP      PP15496  10.515  14.578   4.092 -0.3012 -0.0718 -0.1528
 5393PP      PP15497   2.653   2.833   2.062 -0.2994  0.0344  0.1054
 5394PP      PP15498   2.925   6.490   0.784 -0.1271 -0.0284  0.1245
 5395PP      PP15499  10.635  10.587   9.115  0.1245 -0.0169 -0.0769
 5396PP      PP15500   2.962   0.641  10.063  0.1604 -0.0523  0.0936
 5397PP      PP15501  14.819  10.937  13.248 -0.2600 -0.0057 -0.0977
 5398PP      PP15502  12.903  12.175   1.347  0.0208 -0.0540 -0.2177
 5399PP      PP15503  13.214  12.615  11.416 -0.0578 -0.4878 -0.0342
 5400PP      PP15504   2.681   0.934  12.654  0.1192 -0.0304  0.1269
 5401PP      PP15505   7.744  11.558   3.317  0.0662 -0.1723  0.1843
 5402PP      PP15506   4.452   7.583   2.822 -0.4351 -0.2265 -0.1699
 5403PP      PP15507  12.212  13.902   3.404 -0.0114 -0.3492 -0.1152
 5404PP      PP15508   6.194   2.618  13.283  0.3157  0.0216 -0.1539
 5405PP      PP15509  13.218  10.510  11.453  0.0474 -0.1757  0.0577
 5406PP      PP15510   7.069  12.537  10.146  0.0035 -0.0911 -0.2327
 5407PP      PP15511   0.519   5.154  12.030 -0.2042  0.3292  0.4312
 5408PP      PP15512  12.408  12.755   4.812  0.2826  0.5548 -0.0740
 5409PP      PP15513  15.087   6.934   0.821  0.1697 -0.4571  0.3734
 5410PP      PP15514  14.701   4.972   1.222  0.2489 -0.1375  0.2996
 5411PP      PP15515  11.631   0.707   0.788 -0.1206 -0.2772  0.1461
 5412PP      PP15516   9.851   8.889  10.025 -0.0310  0.0194 -0.0723
 5413PP      PP15517   5.850   6.872   2.050 -0.2201  0.0427 -0.2857
 5414PP      PP15518   5.879   6.529  12.592 -0.0348  0.0328  0.0759
 5415PP      PP15519   6.351  11.893  10.966 -0.0844 -0.1128  0.0737
 5416PP      PP15520   3.733  14.205  12.759  0.1502  0.1508  0.0645
 5417PP      PP15521  15.883   3.116  13.503 -0.1252  0.0684  0.1256
 5418PP      PP15522   3.640  14.020   1.075  0.0135 -0.0300  0.1807
 5419PP      PP15523  14.021   7.446   9.203 -0.0072 -0.0375  0.0352
 5420PP      PP15524  15.413   5.053   1.411 -0.3516 -0.0333 -0.1947
 5421PP      PP15525  11.859  13.293   0.214  0.0718 -0.0048 -0.0269
 5422PP      PP15526   7.546  13.277   3.772  0.0715 -0.1073  0.0762
 5423PP      PP15527   2.965   9.859   2.512 -0.0953 -0.0326  0.0310
 5424PP      PP15528  14.186  13.480   2.973 -0.2254 -0.1919  0.2295
 5425PP      PP15529  11.010   9.939   0.825  0.5330  0.1504 -0.0440
 5426PP      PP15530  14.719   2.489   2.854  0.2593 -0.1913  0.0560
 5427PP      PP15531  15.566   3.471  12.434  0.0050  0.1119  0.2044
 5428PP      PP15532   2.133  12.980  10.897  0.2883  0.3069 -0.0930
 5429PP      PP15533   5.012   0.571  11.599  0.1217  0.4391  0.4790
 5430PP      PP15534   4.392   0.023  12.725  0.1602 -0.0727 -0.1916
 5431PP      PP15535  14.680  12.758   3.339  0.0457  0.2578 -0.0791
 5432PP      PP15536   1.543   9.536  11.595  0.1509  0.0273 -0.0432
 5433PP      PP15537   6.571  15.870   0.819  0.1649  0.1146  0.0712
 5434PP      PP15538   3.074   0.406  13.337  0.0443 -0.1123 -0.2880
 5435PP      PP15539  13.259  11.915   4.971 -0.1131  0.1752  0.1213
 5436PP      PP15540   0.809  14.406  12.974 -0.0773  0.1217  0.1445
 5437PP      PP15541   1.769   8.051   1.099 -0.1067  0.4348 -0.0119
 5438PP      PP15542  12.842   8.152   8.025 -0.0154 -0.1558 -0.1072
 5439PP      PP15543   6.041   2.099   1.355  0.0285 -0.0515 -0.0800
 5440PP      PP15544   5.385  15.172   2.875 -0.2405  0.0130 -0.2399
 5441PP      PP15545  10.345   5.755   2.943  0.0441 -0.0467 -0.0955
 5442PP      PP15546   4.243   9.260  12.895  0.1361 -0.0151 -0.0080
 5443PP      PP15547   9.719   1.115   2.549 -0.4738 -0.0459  0.1346
 5444PP      PP15548  14.332  11.486  11.905 -0.0781 -0.1943  0.0192
 5445PP      PP15549   5.957   2.108  13.488 -0.2455  0.0388 -0.0007
 5446PP      PP15550   9.879   6.239   0.313 -0.0304  0.0702  0.1721
 5447PP      PP15551  11.014  15.592   2.813  0.0378 -0.0176  0.2820
 5448PP      PP15552  15.497   6.069   9.762 -0.0301  0.1347  0.2875
 5449PP      PP15553   6.723   3.490   1.510 -0.2277 -0.2623 -0.2830
 5450PP      PP15554   4.371   8.992   3.614 -0.0005 -0.0355 -0.1146
 5451PP      PP15555   5.080   2.257   1.470 -0.2090 -0.0276 -0.0163
 5452PP      PP15556   2.500  10.740   8.841  0.1081  0.0419  0.0875
 5453PP      PP15557   5.948  13.718  12.684 -0.2223  0.0944 -0.0130
 5454PP      PP15558   2.149   3.704  10.556 -0.0047  0.0371 -0.0940
 5455PP      PP15559   1.553   7.958   8.904 -0.2270 -0.0232 -0.0796
 5456PP      PP15560   7.482   9.465  11.670 -0.0519  0.3724 -0.1632
 5457PP      PP15561   4.168   7.866   0.535 -0.4415  0.3957  0.0710
 5458PP      PP15562  13.762   1.425  12.620 -0.2541  0.0899 -0.0385
 5459PP      PP15563  10.105  10.078   9.315 -0.2270  0.1834  0.0605
 5460PP      PP15564  15.028   6.547  10.320  0.1082  0.3554  0.0363
 5461PP      PP15565  11.031   9.571   2.617 -0.2038  0.1996 -0.0283
 5462PP      PP15566   4.903  11.588   9.679 -0.2148 -0.2239 -0.3660
 5463PP      PP15567   9.222  15.371  12.496 -0.1217  0.0280 -0.1550
 5464PP      PP15568   2.804   1.322   9.299  0.0452  0.0599  0.1505
 5465PP      PP15569   5.619  10.434   9.153 -0.0740 -0.3182 -0.1700
 5466PP      PP15570   2.340  11.927  11.993  0.0085  0.1827  0.0906
 5467PP      PP15571   4.021   1.370  12.911  0.1594 -0.0433  0.1928
 5468PP      PP15572   5.535   2.077  12.171  0.1818  0.1135  0.1571
 5469PP      PP15573  12.000   3.120   0.759  0.0461 -0.0370 -0.2430
 5470PP      PP15574  14.061   7.204  10.756 -0.1587 -0.0232 -0.0331
 5471PP      PP15575   6.757  13.425  12.693 -0.1022 -0.1490  0.1194
 5472PP      PP15576  11.199   7.066   2.073 -0.2202  0.1709  0.1561
 5473PP      PP15577   9.234  13.743   0.423  0.2255  0.3019 -0.1778
 5474PP      PP15578   5.672   3.770   4.073  0.0596 -0.0281  0.0381
 5475PP      PP15579   6.004  11.461  11.328 -0.1852 -0.2264  0.0990
 5476PP      PP15580   4.662   2.461   8.794  0.0297 -0.2077  0.2157
 5477PP      PP15581  11.489   0.123  11.134  0.1004  0.0145 -0.0255
 5478PP      PP15582   0.509   1.218  13.159 -0.0083  0.1281  0.1566
 5479PP      PP15583  11.922   5.523  10.827 -0.1058 -0.0342  0.0181
 5480PP      PP15584   5.947  13.669  13.213  0.3227 -0.1075 -0.1495
 5481PP      PP15585   1.416  12.823  12.586 -0.3920  0.3232 -0.1920
 5482PP      PP15586   5.309  12.744   0.854  0.0934 -0.4030 -0.3714
 5483PP      PP15587  11.021   2.776   9.655 -0.1807  0.0768  0.0229
 5484PP      PP15588   2.300   3.633   2.362  0.0770 -0.3684 -0.0995
 5485PP      PP15589  13.978  14.376   3.773 -0.1326  0.3139  0.1405
 5486PP      PP15590   5.701  11.157  10.362 -0.0792 -0.0176 -0.0362
 5487PP      PP15591   4.348   3.478   3.044 -0.3338 -0.1261 -0.2108
 5488PP      PP15592  10.502   6.899   8.649  0.1006  0.1101 -0.1355
 5489PP      PP15593  12.981  14.856   3.208  0.3064 -0.0622  0.0136
 5490PP      PP15594   3.759   2.751  11.846 -0.2097  0.2617  0.0044
 5491PP      PP15595   0.127  13.524  12.055 -0.2279  0.1361 -0.1344
 5492PP      PP15596   8.838  14.997   3.129 -0.1306 -0.0166 -0.1941
 5493PP      PP15597   7.085   4.300  13.122  0.0575  0.0828  0.1059
 5494PP      PP15598   0.970   6.748  12.451  0.2056  0.0996  0.3248
 5495PP      PP15599   0.463   1.703   8.976  0.1395  0.2923 -0.3552
 5496PP      PP15600  11.612   6.173   3.084 -0.2927 -0.0815 -0.3475
 5497PP      PP15601  13.597   6.510   3.178  0.2470  0.1091 -0.3062
 5498PP      PP15602   2.706  12.614  12.211 -0.2378 -0.1534  0.3639
 5499PP      PP15603   4.635   3.990   0.199  0.2477 -0.2939 -0.0755
 5500PP      PP15604  14.792  15.159   2.811  0.2616 -0.3609 -0.0850
 5501PP      PP15605  12.538   1.215   1.380 -0.0686  0.0319 -0.1888
 5502PP      PP15606   3.981  11.871  10.982  0.2211  0.0798  0.0317
 5503PP      PP15607  14.236   6.565   0.974  0.1939 -0.0779 -0.0217
 5504PP      PP15608  12.339   2.287  13.236  0.0178  0.2372 -0.0203
 5505PP      PP15609  12.991  11.045   0.464 -0.0023 -0.0535 -0.2098
 5506PP      PP15610  11.741   0.084  12.010  0.0292  0.0154 -0.1937
 5507PP      PP15611   4.005   6.429   8.609  0.2358  0.0559  0.1319
 5508PP      PP15612   4.040   8.719   0.228  0.0178  0.0476 -0.1342
 5509PP      PP15613  13.019  15.012   1.376 -0.0514  0.0515 -0.0565
 5510PP      PP15614  10.581  10.135   2.089  0.0354 -0.2305 -0.0344
 5511PP      PP15615   9.892  13.116  12.582  0.1615 -0.0271  0.1707
 5512PP      PP15616  12.596  11.873  12.209 -0.1542 -0.0651 -0.1246
 5513PP      PP15617  14.945   5.082   8.522 -0.0353 -0.2576  0.2358
 5514PP      PP15618  11.680   7.887  10.340  0.0861 -0.2074 -0.2255
 5515PP      PP15619  11.408  11.627  10.006 -0.1444  0.3361  0.0722
 5516PP      PP15620  14.711   3.776   3.882 -0.3126 -0.0442  0.2364
 5517PP      PP15621  15.234  10.189   0.151  0.2352  0.1592 -0.1650
 5518PP      PP15622   3.697   8.347   1.782  0.6087  0.0480  0.1079
 5519PP      PP15623   5.052   2.847  10.450  0.2684  0.2269 -0.0298
 5520PP      PP15624   7.237  11.304   3.308  0.0480  0.3100 -0.1452
 5521PP      PP15625  13.079   4.155   2.256  0.2349 -0.0034  0.0216
 5522PP      PP15626  13.128  11.360   9.260 -0.1059  0.0913 -0.0821
 5523PP      PP15627   3.752   6.893   2.127  0.0202 -0.0308 -0.2699
 5524PP      PP15628   5.776   9.228  12.884  0.1381  0.1103  0.0242
 5525PP      PP15629  14.991   5.878   3.600  0.0904 -0.1013 -0.0321
 5526PP      PP15630   0.510   9.175   0.500 -0.0029 -0.1983 -0.1524
 5527PP      PP15631   1.276   2.897   2.552 -0.2574 -0.0188  0.1442
 5528PP      PP15632   7.688   5.696   0.479  0.1967  0.1173  0.1236
 5529PP      PP15633  11.813   2.108  12.220  0.1527 -0.0948  0.0799
 5530PP      PP15634  10.755  13.435  10.376 -0.0789 -0.1793  0.1847
 5531PP      PP15635   3.695   5.907   0.720  0.0526 -0.0357 -0.0145
 5532PP      PP15636   2.379   0.365  13.494  0.3327  0.2311 -0.1711
 5533PP      PP15637   5.486   8.369   1.780 -0.0159 -0.4166 -0.1808
 5534PP      PP15638   5.467   7.130   0.162  0.3203 -0.0935 -0.1548
 5535PP      PP15639  11.239  14.075  11.573  0.2818  0.2221  0.2822
 5536PP      PP15640   8.872  14.912   2.615 -0.1369  0.0364  0.0751
 5537PP      PP15641   9.215   8.004  13.346 -0.2804  0.0065  0.0401
 5538PP      PP15642  14.897  10.205   9.264  0.1334 -0.0408 -0.1040
 5539PP      PP15643   7.943   3.463  11.054 -0.0819  0.2105  0.2532
 5540PP      PP15644  12.333   9.596   9.505  0.0631  0.1596 -0.0071
 5541PP      PP15645  15.426   7.688  13.276  0.1026  0.0631  0.0294
 5542PP      PP15646   3.415  14.550  12.460 -0.4251 -0.1401 -0.0879
 5543PP      PP15647  12.511  15.629   4.629 -0.4654  0.0551  0.1212
 5544PP      PP15648   9.741   3.043   9.624 -0.1707 -0.0937  0.2082
 5545PP      PP15649  14.631  12.665  10.251 -0.1177 -0.1400  0.3227
 5546PP      PP15650  14.210  14.926   4.388 -0.0987  0.2019 -0.1529
 5547PP      PP15651   2.892   6.008  10.329  0.0280 -0.4433 -0.0442
 5548PP      PP15652   0.258   1.027  13.517 -0.0813  0.0180 -0.0081
 5549PP      PP15653  14.576  14.055   2.563 -0.1551 -0.0194  0.1502
 5550PP      PP15654   0.268   3.396   1.509 -0.1735  0.3104 -0.1562
 5551PP      PP15655   0.063  15.553  11.946  0.1277 -0.1791 -0.0203
 5552PP      PP15656  10.369  12.520  11.190  0.0021 -0.1874 -0.2146
 5553PP      PP15657   3.966  13.816  10.849 -0.0605  0.3125  0.1172
 5554PP      PP15658   1.185  15.297  13.528  0.1182 -0.0970  0.0615
 5555PP      PP15659  10.464   9.641   1.873 -0.1614  0.0893  0.1501
 5556PP      PP15660  10.320   7.020   2.491  0.0801 -0.0212  0.4103
 5557PP      PP15661   4.275   2.815  11.116  0.0209 -0.2737 -0.0392
 5558PP      PP15662  14.936  12.633   3.809  0.1237  0.4396  0.1178
 5559PP      PP15663  10.288  12.637   9.212  0.0845  0.2042  0.0009
 5560PP      PP15664  15.365   9.443  11.370 -0.0776 -0.1461  0.2331
 5561PP      PP15665   8.976   8.256  11.891  0.0918  0.0940  0.1806
 5562PP      PP15666   2.853  14.520   2.814 -0.1784 -0.0811 -0.1857
 5563PP      PP15667  13.866  11.150  12.166  0.0870  0.0522  0.0635
 5564PP      PP15668   3.357  14.456  10.571  0.2979 -0.0977  0.2067
 5565PP      PP15669   3.579  14.715   2.932 -0.1151 -0.1157 -0.1491
 5566PP      PP15670  15.677   6.660  11.907  0.0336  0.0548  0.4603
 5567PP      PP15671   9.511   5.045  10.538 -0.2684  0.4902  0.3989
 5568PP      PP15672  15.482   1.832   1.471 -0.2425 -0.1160  0.1089
 5569PP      PP15673  10.564   8.834  10.991 -0.2927 -0.1674 -0.2242
 5570PP      PP15674   4.764   9.241  12.198 -0.1110  0.0704 -0.2287
 5571PP      PP15675  13.805  13.596  12.451 -0.0827  0.5160  0.1843
 5572PP      PP15676   9.094   8.447  10.516  0.1436  0.1233 -0.1917
 5573PP      PP15677   2.440  12.737  10.514 -0.1171  0.0373 -0.0034
 5574PP      PP15678  11.449   9.927  10.387  0.0865 -0.0976  0.0825
 5575PP      PP15679   2.658  11.504  12.834  0.0878  0.1887 -0.2087
 5576PP      PP15680   8.106   9.263   8.759 -0.0275 -0.0337 -0.0788
 5577PP      PP15681   2.153   7.152  12.206 -0.0535  0.0592  0.1611
 5578PP      PP15682   9.422  13.286   0.418  0.1648  0.3118 -0.2630
 5579PP      PP15683   2.775   4.794  10.581 -0.1865  0.3505 -0.0674
 5580PP      PP15684  13.673   8.262  10.229 -0.3432  0.1577 -0.2007
 5581PP      PP15685   3.316   6.181  11.808  0.1018 -0.0190  0.2091
 5582PP      PP15686   9.421   9.681   2.898  0.3241 -0.0597  0.0203
 5583PP      PP15687  12.398   3.260   0.466 -0.1156 -0.0799  0.0833
 5584PP      PP15688  13.102   6.413   9.585 -0.0648  0.0472  0.0219
 5585PP      PP15689   6.402  15.270  10.493  0.1222 -0.0579 -0.0730
 5586PP      PP15690  15.171   8.881   4.158  0.2660  0.4080 -0.1133
 5587PP      PP15691   7.279   1.330  12.781  0.2064 -0.0105 -0.3643
 5588PP      PP15692  13.779  12.115  11.564  0.0476 -0.0739  0.2629
 5589PP      PP15693  11.991   0.837  10.547 -0.0124 -0.1297 -0.3897
 5590PP      PP15694   7.236   6.694   1.706 -0.3110  0.0184  0.1585
 5591PP      PP15695   1.345   7.839  10.604  0.3769 -0.0720 -0.1997
 5592PP      PP15696   2.220  12.222  12.864  0.0757  0.2651  0.1349
 5593PP      PP15697   4.838   9.929   9.210  0.0516 -0.1303  0.0242
 5594PP      PP15698   6.349  14.955  13.444 -0.2756 -0.1497 -0.0782
 5595PP      PP15699   2.936   3.029  12.603  0.1051 -0.0911  0.2114
 5596PP      PP15700   4.038   6.977  12.272  0.0271 -0.0565  0.1069
 5597PP      PP15701   0.772  11.930  11.943  0.0457 -0.1198  0.1004
 5598PP      PP15702   2.436  13.045  12.319  0.1395  0.3454  0.0993
 5599PP      PP15703   7.152  10.677   5.003 -0.1751 -0.2374  0.2149
 5600PP      PP15704   3.378   3.019  12.288 -0.0692 -0.0231 -0.0533
 5601PP      PP15705  10.359   0.393  11.548  0.0427 -0.5184  0.0027
 5602PP      PP15706  15.132   2.654  10.454 -0.3539 -0.0849  0.1109
 5603PP      PP15707   0.418  14.276  10.101  0.0192 -0.2108  0.1589
 5604PP      PP15708   6.858  11.285  12.295 -0.3049 -0.1636  0.0368
 5605PP      PP15709  11.832  12.550  11.571 -0.1115 -0.2706 -0.0370
 5606PP      PP15710   9.095   2.280  10.588  0.0985  0.0577  0.2956
 5607PP      PP15711  13.581   8.788   3.147  0.2848  0.0034 -0.1071
 5608PP      PP15712  12.667   0.422  10.603  0.1285 -0.1715  0.2688
 5609PP      PP15713  10.407   5.606   1.723  0.3060  0.2414  0.0330
 5610PP      PP15714   7.632   6.170   3.442  0.1774 -0.1689 -0.0839
 5611PP      PP15715  10.404   3.482   2.611  0.1119 -0.5458 -0.2870
 5612PP      PP15716   5.782  12.621   4.325 -0.0534 -0.0365  0.2716
 5613PP      PP15717   4.891   1.849  12.743 -0.1341  0.0878 -0.1437
 5614PP      PP15718   7.229   6.181  11.938 -0.1365 -0.1202  0.2062
 5615PP      PP15719   9.624   1.558  10.311 -0.1046  0.0356 -0.2772
 5616PP      PP15720   2.568   8.578  10.616 -0.1443  0.1679 -0.3400
 5617PP      PP15721   6.907   1.333   9.195 -0.0248  0.0510  0.2263
 5618PP      PP15722   6.306   5.327   3.427 -0.1664  0.1604 -0.2389
 5619PP      PP15723   7.957  13.422  12.852  0.1007  0.3017 -0.2723
 5620PP      PP15724   4.290   0.820   2.155  0.0742  0.1000  0.2265
 5621PP      PP15725   1.598   6.550  12.896 -0.2112 -0.0068  0.2135
 5622PP      PP15726  10.167   8.989   2.088 -0.1833 -0.0371  0.1000
 5623PP      PP15727   7.139   2.123  10.940 -0.2239 -0.1259 -0.0663
 5624PP      PP15728   5.257  13.361   0.237  0.0828 -0.1094  0.1459
 5625PP      PP15729   3.860  12.219  10.120 -0.0149 -0.0359 -0.0602
 5626PP      PP15730  13.151   5.471   3.491 -0.0718 -0.2389 -0.3056
 5627PP      PP15731  14.004   7.485   3.260 -0.1357  0.2356  0.0630
 5628PP      PP15732  14.580  10.812  10.370 -0.1180  0.1215  0.1492
 5629PP      PP15733  10.776   7.178   7.754  0.0065 -0.1825  0.0934
 5630PP      PP15734   7.240   0.134  12.806 -0.0138 -0.1615  0.0679
 5631PP      PP15735  14.300   5.141   0.506 -0.1179  0.1832  0.0263
 5632PP      PP15736  14.370  12.954  11.854  0.1047 -0.2450 -0.0602
 5633PP      PP15737   4.366  13.504   9.507  0.1408  0.1253 -0.1381
 5634PP      PP15738  13.414   3.805  10.113 -0.1169 -0.1495 -0.1468
 5635PP      PP15739  11.173  11.164   0.094 -0.1740  0.2574 -0.0109
 5636PP      PP15740   8.585  13.568   0.886  0.2094  0.0103  0.0607
 5637PP      PP15741  11.002  14.757   9.141  0.1911 -0.0743  0.0115
 5638PP      PP15742   0.196  10.741   3.011  0.0982 -0.0149  0.1983
 5639PP      PP15743  11.657  14.417   1.799  0.0097  0.0438  0.4095
 5640PP      PP15744   0.743   4.079   0.777  0.0547  0.2199 -0.0453
 5641PP      PP15745   7.419  12.546   4.475 -0.5105  0.2451 -0.0177
 5642PP      PP15746  15.179   7.165  10.463 -0.2840  0.1069 -0.0769
 5643PP      PP15747  11.189  12.519   9.291  0.1954 -0.1394  0.1169
 5644PP      PP15748  13.592   7.189  11.611  0.1015  0.1890 -0.2018
 5645PP      PP15749   1.140   2.665   9.627 -0.1444  0.1338 -0.1071
 5646PP      PP15750   8.221  13.765   4.046  0.1115  0.1416  0.0742
 5647PP      PP15751  11.278   7.960   8.919 -0.0834 -0.1130 -0.3386
 5648PP      PP15752   0.607   7.325   2.817 -0.0615  0.2254 -0.2804
 5649PP      PP15753  10.410   5.795   3.454  0.2406  0.2450 -0.1010
 5650PP      PP15754  11.150   3.627  12.515 -0.3035 -0.1329 -0.0964
 5651PP      PP15755   6.788  12.846  11.455 -0.1055 -0.0362 -0.4202
 5652PP      PP15756   7.802   8.109   2.729  0.3353  0.2685 -0.3419
 5653PP      PP15757   6.318  12.867   9.505  0.2374  0.1952 -0.1464
 5654PP      PP15758   6.854  10.491  11.812  0.1805 -0.0003 -0.2691
 5655PP      PP15759  12.240   5.886  11.641  0.2241  0.1318  0.2570
 5656PP      PP15760   4.370  12.436   9.917  0.0216 -0.1541 -0.3055
 5657PP      PP15761   3.303   9.705  12.212  0.0765  0.0668 -0.3689
 5658PP      PP15762   4.120  11.413  12.446 -0.0056 -0.5298  0.0756
 5659PP      PP15763   7.605   1.566  12.062  0.0068 -0.1492  0.0538
 5660PP      PP15764   3.727   4.901   2.014 -0.5636 -0.3056 -0.1090
 5661PP      PP15765  11.858   2.197   2.545 -0.1826  0.1125 -0.0824
 5662PP      PP15766  12.746  12.268  10.160  0.0064 -0.1879  0.2159
 5663PP      PP15767  11.164   4.564  12.327  0.2625  0.1430  0.2450
 5664PP      PP15768  13.472   4.187   9.357 -0.0245 -0.3638  0.2947
 5665PP      PP15769   2.393   1.636   9.357 -0.1163 -0.4312 -0.1767
 5666PP      PP15770   7.622   2.917   9.623 -0.0517  0.3293 -0.2048
 5667PP      PP15771   8.142  12.038   3.492 -0.0217 -0.1218  0.3005
 5668PP      PP15772  11.959  11.923   2.223 -0.4868 -0.0757  0.1397
 5669PP      PP15773   5.526   3.384   9.311  0.1370 -0.1924 -0.2428
 5670PP      PP15774   7.085   2.730  11.885 -0.0210  0.1912 -0.1926
 5671PP      PP15775   5.516  15.867  12.869 -0.1758 -0.2572  0.0097
 5672PP      PP15776   9.832   4.878   0.515 -0.0161  0.3908  0.0381
 5673PP      PP15777  15.426  12.341   0.716  0.0185 -0.0980  0.0609
 5674PP      PP15778   8.943  11.684  10.938  0.1734 -0.1846  0.6364
 5675PP      PP15779  15.705  13.457   0.022  0.2226 -0.0067  0.1312
 5676PP      PP15780   7.117  14.316   1.415 -0.2595 -0.1201  0.1363
 5677PP      PP15781   7.431  12.798   9.669  0.0050 -0.0558 -0.1358
 5678PP      PP15782  10.858   1.538  10.803 -0.0385  0.0642 -0.0999
 5679PP      PP15783   9.640   8.279   3.679  0.3855  0.1499  0.0437
 5680PP      PP15784  13.106  11.827  13.472  0.1530  0.0339 -0.5452
 5681PP      PP15785   9.660  13.025   3.888 -0.0198  0.1775  0.1173
 5682PP      PP15786   3.752   1.107   2.354 -0.1222  0.0643  0.1147
 5683PP      PP15787   8.221  14.006  10.998 -0.0917  0.0915  0.0249
 5684PP      PP15788  11.291   7.315   1.293  0.1234  0.0759 -0.1048
 5685PP      PP15789  10.284   2.080  12.763 -0.1972 -0.0319  0.1318
 5686PP      PP15790   2.159   7.021  11.412 -0.0347  0.0982 -0.1379
 5687PP      PP15791  11.433  14.847   1.685 -0.1553 -0.1959 -0.3064
 5688PP      PP15792  12.348  14.970  13.462  0.0782  0.0405 -0.1208
 5689PP      PP15793   1.618   2.734  12.743  0.0514  0.0792 -0.1133
 5690PP      PP15794   6.282  11.473   4.260 -0.0574 -0.0544 -0.1303
 5691PP      PP15795   4.945   5.615   1.762 -0.2551  0.1421  0.2997
 5692PP      PP15796  14.053   5.228  11.214 -0.0184 -0.0489 -0.1282
 5693PP      PP15797   6.835  13.831  12.287 -0.2063 -0.0134  0.1760
 5694PP      PP15798  13.254  12.520   3.837 -0.2312 -0.1043  0.0966
 5695PP      PP15799   9.719   8.094  13.355 -0.1081 -0.2546 -0.1496
 5696PP      PP15800   7.769   8.204   3.743 -0.1080 -0.3049  0.0358
 5697PP      PP15801   2.197   3.856   1.050 -0.1504 -0.0917 -0.1515
 5698PP      PP15802   8.161   6.881  11.680 -0.0953 -0.2140 -0.0724
 5699PP      PP15803   5.223  11.890   0.058 -0.1991 -0.0239  0.3741
 5700PP      PP15804   0.821   0.583  12.986 -0.0481  0.0736  0.0588
 5701PP      PP15805   1.222  15.208  12.541 -0.3636 -0.2223  0.0476
 5702PP      PP15806   0.199   6.661  11.656  0.1470 -0.2013  0.0252
 5703PP      PP15807   5.162  14.110   3.890 -0.1234  0.2096 -0.0712
 5704PP      PP15808  14.424   9.902  11.569  0.0826  0.1083  0.3058
 5705PP      PP15809   5.100   5.300   9.262 -0.0114 -0.2655  0.2088
 5706PP      PP15810   5.689   9.310   3.169 -0.1547  0.0763  0.3229
 5707PP      PP15811   1.356  15.388   1.205  0.3801 -0.1818  0.1553
 5708PP      PP15812   0.380   7.349   0.859  0.0810  0.3827  0.0818
 5709PP      PP15813  11.908   0.172   2.054 -0.0485  0.1273 -0.2121
 5710PP      PP15814   3.101   7.393   3.643 -0.3967  0.0165  0.0627
 5711PP      PP15815   2.956  13.510  10.480  0.1702 -0.2717 -0.2238
 5712PP      PP15816  13.614   7.948   2.804  0.0666 -0.1936 -0.0020
 5713PP      PP15817  13.688   7.036   2.737 -0.0634  0.2586 -0.4058
 5714PP      PP15818   7.273  11.439   9.814 -0.2370  0.0336  0.0614
 5715PP      PP15819   7.551   9.381   3.682 -0.0629  0.0359  0.1079
 5716PP      PP15820   7.020   5.686   8.815  0.0706 -0.0720 -0.1538
 5717PP      PP15821  12.627  14.450   4.648  0.0752 -0.0394 -0.1641
 5718PP      PP15822   6.848   1.511   3.439 -0.0924  0.1224  0.0607
 5719PP      PP15823   4.012  10.607   3.516  0.3096  0.0893  0.0718
 5720PP      PP15824  10.837  10.764  13.536  0.1770  0.0243  0.0556
 5721PP      PP15825   4.822   4.318  11.492  0.1530  0.2927 -0.1907
 5722PP      PP15826  11.888  10.170   2.428  0.0385 -0.0368 -0.0744
 5723PP      PP15827  13.473  14.942   3.376  0.2590  0.0289 -0.0500
 5724PP      PP15828  13.176   5.904   2.564  0.4181 -0.0815 -0.0943
 5725PP      PP15829   2.720   1.150  11.966 -0.1335 -0.1368  0.4104
 5726PP      PP15830  15.482   5.813  11.223 -0.0138  0.1295 -0.1375
 5727PP      PP15831   0.519  14.753  11.655  0.0996  0.0848  0.1817
 5728PP      PP15832  10.725   9.475   9.849 -0.0314  0.2175  0.0051
 5729PP      PP15833  12.845   5.848  10.860 -0.2179  0.0540  0.3282
 5730PP      PP15834   1.772   9.392   0.374  0.2214 -0.0210 -0.0225
 5731PP      PP15835   4.452  11.693  11.237 -0.1112  0.0674  0.2064
 5732PP      PP15836   7.710   2.422   4.474  0.1710  0.0606  0.2307
 5733PP      PP15837  15.297  12.541  10.933 -0.3346 -0.1894 -0.0464
 5734PP      PP15838   7.094  15.663   0.245 -0.1416  0.5041 -0.0778
 5735PP      PP15839   6.811  12.562   5.134 -0.1151 -0.1102  0.1935
 5736PP      PP15840  13.319  11.983   3.932 -0.0586 -0.1967 -0.1745
 5737PP      PP15841  15.537   3.454   4.057 -0.2055  0.0799 -0.3669
 5738PP      PP15842   6.531   6.063   3.499  0.1190 -0.1904 -0.1222
 5739PP      PP15843   4.753   4.776  12.344  0.0497 -0.2628  0.1193
 5740PP      PP15844  11.249  13.948   8.867  0.1554  0.0558  0.0358
 5741PP      PP15845  11.501  11.045   0.902  0.0177  0.2807 -0.0853
 5742PP      PP15846   5.661   1.094  11.918  0.0355  0.1100  0.0000
 5743PP      PP15847   0.391   1.553   3.437 -0.0297  0.1274 -0.3126
 5744PP      PP15848  10.568  10.120  12.978  0.1990  0.0250  0.0262
 5745PP      PP15849   8.864   7.005   1.049 -0.0568 -0.2923 -0.2491
 5746PP      PP15850   2.969  15.664   0.994 -0.0922  0.0188  0.0999
 5747PP      PP15851  15.227   3.047   1.451 -0.0139 -0.1097  0.0797
 5748PP      PP15852   1.053   7.804   9.057 -0.2326 -0.1735  0.1621
 5749PP      PP15853  13.626  12.805  11.229  0.0378  0.0081 -0.0271
 5750PP      PP15854   1.450   1.765   0.229 -0.0009  0.0090 -0.1222
 5751PP      PP15855   4.449   1.643  12.453 -0.2583  0.0661 -0.0363
 5752PP      PP15856   7.668   7.828   9.886  0.2378  0.3042 -0.0311
 5753PP      PP15857   4.118   8.488   1.554 -0.0582  0.0000 -0.0337
 5754PP      PP15858   5.720   7.440   3.288 -0.1133  0.0176  0.0566
 5755PP      PP15859   8.225   3.045  13.064 -0.0841 -0.0760 -0.0095
 5756PP      PP15860   1.966  13.100   8.999  0.1140 -0.0815  0.0639
 5757PP      PP15861   5.833   7.010   3.091  0.0363  0.0178  0.2525
 5758PP      PP15862  12.394   2.998   3.514  0.0813 -0.0589  0.2205
 5759PP      PP15863   9.906   3.070  12.471 -0.2116  0.2474  0.0376
 5760PP      PP15864  10.333   3.855   9.255 -0.1200 -0.0033  0.1442
 5761PP      PP15865  14.202   0.780   9.944 -0.1778 -0.0673 -0.2414
 5762PP      PP15866   6.754   9.514   1.344  0.0973  0.3191 -0.0123
 5763PP      PP15867   6.294   5.764  12.061 -0.4614  0.2353 -0.0166
 5764PP      PP15868   4.299  12.474   1.909  0.1847 -0.0871 -0.3073
 5765PP      PP15869  14.002  11.556   8.754  0.0269  0.1534 -0.2466
 5766PP      PP15870  15.510   6.617  13.374  0.3997 -0.0062 -0.1410
 5767PP      PP15871  13.518   7.126  12.924  0.4824 -0.3849  0.1299
 5768PP      PP15872   9.634  12.366   0.694  0.0192 -0.0638  0.0604
 5769PP      PP15873   4.558   8.186  10.771  0.1381  0.0079 -0.0645
 5770PP      PP15874   4.679  15.865   4.094  0.1882 -0.0845 -0.0842
 5771PP      PP15875  11.386  12.957   2.392 -0.0465 -0.1848  0.1505
 5772PP      PP15876  13.157   3.787   3.918 -0.2259 -0.0168  0.0190
 5773PP      PP15877  13.779   6.049   9.013 -0.0014  0.3141  0.2611
 5774PP      PP15878   1.351  11.763   9.006  0.4219  0.0007  0.0677
 5775PP      PP15879   6.938  10.774   9.258  0.0579  0.0846 -0.0488
 5776PP      PP15880  13.299   3.089   2.965  0.1729 -0.1171  0.1233
 5777PP      PP15881  10.625   7.154  11.236 -0.0321 -0.3663  0.0057
 5778PP      PP15882  11.098  14.334   4.208 -0.0380  0.2249 -0.1202
 5779PP      PP15883  15.014   6.463   8.797  0.1175 -0.0143 -0.0936
 5780PP      PP15884   1.557  11.050   2.837  0.0381 -0.2071  0.2661
 5781PP      PP15885   3.229   7.826  12.910  0.0596 -0.4380 -0.1256
 5782PP      PP15886   6.421  11.453  11.656  0.0746 -0.0858  0.2126
 5783PP      PP15887  15.583   7.325   0.067  0.1942  0.2174  0.0793
 5784PP      PP15888  12.787  13.620   8.915  0.0828  0.1176  0.0190
 5785PP      PP15889  13.858   5.099   1.996  0.3142  0.0361 -0.1561
 5786PP      PP15890   4.418   2.289   3.540 -0.3319  0.0629 -0.0992
 5787PP      PP15891  10.642   7.846   1.970 -0.0912 -0.4033 -0.0311
 5788PP      PP15892  12.970   3.418   1.808  0.1502 -0.3400  0.0895
 5789PP      PP15893   8.158   9.784   3.217  0.1235  0.0285 -0.0071
 5790PP      PP15894   1.787  15.103  12.049 -0.1436 -0.1182  0.0201
 5791PP      PP15895  14.241  11.313   0.588 -0.0627  0.0927  0.5360
 5792PP      PP15896  13.264  14.103   1.284  0.0776  0.2981  0.0004
 5793PP      PP15897   5.167   5.247   8.723  0.0444 -0.1499  0.3707
 5794PP      PP15898  14.233  11.611  10.458 -0.0209  0.3145  0.0351
 5795PP      PP15899  15.271   1.309  10.469 -0.3437 -0.0063 -0.0047
 5796PP      PP15900  12.866   0.784   2.069 -0.1925  0.1006  0.2905
 5797PP      PP15901  15.424   8.796   0.747  0.1296  0.3851  0.2395
 5798PP      PP15902  13.886   9.239   0.262 -0.1678 -0.0548 -0.3421
 5799PP      PP15903   0.568   8.119   2.290  0.1205  0.2952  0.4015
 5800PP      PP15904   7.971  14.638   9.383 -0.0253  0.2400  0.0435
 5801PP      PP15905   2.286  15.312  12.612  0.1762 -0.0373  0.0579
 5802PP      PP15906   5.857   4.999   3.335  0.1028 -0.0790  0.0982
 5803PP      PP15907   0.159   9.941  13.406  0.4141  0.2207 -0.0259
 5804PP      PP15908  10.522   0.606   2.374 -0.1212 -0.0688 -0.2394
 5805PP      PP15909   3.799   3.284  10.406 -0.1299 -0.0898 -0.0132
 5806PP      PP15910   6.500   0.952  10.207  0.0206 -0.1853 -0.0659
 5807PP      PP15911  13.870   5.932  12.846  0.0173 -0.3157 -0.1864
 5808PP      PP15912  13.356   6.626  11.611 -0.0519  0.2684  0.0914
 5809PP      PP15913  11.014   6.284   0.009 -0.0629  0.1513 -0.0120
 5810PP      PP15914   1.317  11.373   2.034 -0.4026  0.1878 -0.2820
 5811PP      PP15915   0.343   1.354   4.546 -0.2738  0.0586  0.0429
 5812PP      PP15916   4.115   4.842   4.151  0.1954  0.1976  0.1837
 5813PP      PP15917   9.919  15.580   1.596  0.1271  0.0536  0.1975
 5814PP      PP15918  10.505   4.801   8.429 -0.2335 -0.0787  0.2019
 5815PP      PP15919  10.255   3.116   4.346  0.2520  0.1436 -0.0866
 5816PP      PP15920   2.599  12.535   8.772  0.2349 -0.1890 -0.2270
 5817PP      PP15921  14.165  10.503   9.034  0.0814  0.2751 -0.3062
 5818PP      PP15922  11.883   0.829   5.123 -0.0043 -0.4615  0.4404
 5819PP      PP15923   5.112   0.391  10.292  0.0223 -0.1268 -0.0046
 5820PP      PP15924  15.537   1.802   3.922  0.1702 -0.4239  0.1332
 5821PP      PP15925   9.132   8.262   4.091 -0.2307 -0.0615  0.1358
 5822PP      PP15926  10.864  12.392  11.374 -0.0615 -0.1663  0.2423
 5823PP      PP15927  14.536   1.401  12.078  0.0259 -0.1245  0.2214
 5824PP      PP15928   8.598   7.673   9.954 -0.2549 -0.4208 -0.1029
 5825PP      PP15929   9.332  11.305  10.804  0.0626  0.0300 -0.1478
 5826PP      PP15930   7.631  14.597  13.285  0.0005 -0.1182  0.2197
 5827PP      PP15931   6.888  11.317   3.708  0.0493 -0.1132 -0.2740
 5828PP      PP15932  15.609   5.506   8.868  0.4389 -0.2359  0.0938
 5829PP      PP15933   3.285  10.674  13.371 -0.0161  0.1433 -0.0799
 5830PP      PP15934   0.610   3.418   0.179  0.1082  0.1732 -0.5464
 5831PP      PP15935   8.734  15.027   4.211  0.0956 -0.2644  0.3134
 5832PP      PP15936   8.538   1.964   1.158  0.0136  0.0606  0.0849
 5833PP      PP15937   4.928  11.506   2.940  0.0799 -0.1879 -0.2346
 5834PP      PP15938  12.046   6.323   2.378  0.2082  0.3560 -0.1851
 5835PP      PP15939  13.204   1.146   9.093  0.2340 -0.1324 -0.0184
 5836PP      PP15940   4.641   6.993   1.228 -0.1958 -0.0957  0.1552
 5837PP      PP15941   9.654   8.114   2.846  0.2070  0.1563 -0.2550
 5838PP      PP15942  11.079  12.179  12.354 -0.2990  0.0878 -0.2547
 5839PP      PP15943  13.601   2.777  10.408  0.1942 -0.0209  0.1356
 5840PP      PP15944   7.442  10.909   1.876  0.1025  0.0485 -0.1743
 5841PP      PP15945  13.643   7.071   8.765 -0.0681  0.1113 -0.1784
 5842PP      PP15946  13.972  11.452   9.244 -0.0687 -0.0092  0.1686
 5843PP      PP15947   9.060   9.846  10.882  0.0382  0.2735  0.0785
 5844PP      PP15948  12.082   2.420   9.042  0.0064  0.0250 -0.0959
 5845PP      PP15949   9.095  15.416   4.982 -0.1719 -0.1721  0.1427
 5846PP      PP15950   2.190   0.078   2.675  0.0067 -0.1749 -0.1703
 5847PP      PP15951   6.347   7.730  11.179  0.1922 -0.1733  0.2895
 5848PP      PP15952   1.283   0.316   9.616 -0.1125  0.0779 -0.0014
 5849PP      PP15953  13.549   7.229   2.243 -0.2474  0.2517  0.1036
 5850PP      PP15954   0.087  15.316  12.745  0.3280  0.0332  0.1113
 5851PP      PP15955   1.296   6.296  13.185  0.0862 -0.1212 -0.0315
 5852PP      PP15956   4.435   5.246  12.929  0.1516 -0.3337  0.1763
 5853PP      PP15957   4.224   0.424   9.784  0.1544  0.1006  0.0464
 5854PP      PP15958  12.274  10.646   2.766 -0.0225  0.0690 -0.2321
 5855PP      PP15959  14.873   0.661  12.483  0.2795 -0.0212  0.1126
 5856PP      PP15960   5.168  11.682   4.437 -0.1385  0.1808  0.0172
 5857PP      PP15961   2.675   9.164   9.539  0.0419 -0.1703  0.3093
 5858PP      PP15962  11.516   3.238  12.741 -0.0038 -0.0861  0.1977
 5859PP      PP15963   4.894   1.572   1.225 -0.1436  0.2410  0.1791
 5860PP      PP15964   0.282   2.830   4.073 -0.1094 -0.2417 -0.1369
 5861PP      PP15965   9.124   6.622   8.231 -0.0040 -0.1716 -0.3578
 5862PP      PP15966   1.020   2.036   0.206  0.0586  0.1885  0.1032
 5863PP      PP15967   9.597   4.710   1.721 -0.1462 -0.3459  0.0112
 5864PP      PP15968  14.656   9.388   2.594 -0.4026  0.2887 -0.1355
 5865PP      PP15969   0.940   0.101   4.517 -0.4357  0.1475  0.1695
 5866PP      PP15970   0.445   4.401   3.415 -0.0696  0.3081 -0.1427
 5867PP      PP15971  13.012  11.128   0.980  0.1826 -0.1130  0.0293
 5868PP      PP15972   9.903   5.093  10.851  0.2505 -0.0495 -0.0905
 5869PP      PP15973  10.280   3.359  12.303  0.1531 -0.0742 -0.1300
 5870PP      PP15974  13.465   0.497  11.532 -0.1857 -0.0556 -0.0185
 5871PP      PP15975   3.090   3.120   3.728 -0.0450 -0.1248 -0.0844
 5872PP      PP15976  15.024   2.246  13.502  0.0085  0.0869 -0.3134
 5873PP      PP15977  11.159   3.443   3.984  0.3507 -0.3543  0.0229
 5874PP      PP15978   4.047  12.723  11.099 -0.4469  0.2882 -0.3275
 5875PP      PP15979   5.355  11.731   3.107  0.1525  0.0442  0.1710
 5876PP      PP15980  13.700  12.432   0.314 -0.2387 -0.1869  0.0831
 5877PP      PP15981   4.632  14.578   0.458 -0.0040  0.2574  0.0824
 5878PP      PP15982   7.812   8.876  10.456  0.0641  0.2383 -0.0293
 5879PP      PP15983   7.093   2.393   3.299 -0.0265 -0.1134  0.1065
 5880PP      PP15984  15.813   8.618  11.404 -0.3256  0.2555 -0.1793
 5881PP      PP15985  14.235   1.700   1.986 -0.0996  0.2785 -0.1887
 5882PP      PP15986   9.970   1.882  10.997  0.0458  0.0148  0.2451
 5883PP      PP15987   0.941   1.247   2.586  0.0337  0.0884 -0.0066
 5884PP      PP15988   5.109  10.198   2.343  0.2004  0.2661 -0.2476
 5885PP      PP15989   3.912   1.680   2.278  0.1655  0.1004  0.4046
 5886PP      PP15990   9.193  14.889   4.861 -0.0125 -0.4887  0.0079
 5887PP      PP15991   9.727   3.779   0.217 -0.0580  0.0444  0.1439
 5888PP      PP15992   1.772   8.655   1.565 -0.0444  0.0457  0.1187
 5889PP      PP15993  14.607   9.653   9.239 -0.0574 -0.1903 -0.3704
 5890PP      PP15994   5.959   0.680  12.959 -0.0250  0.0776  0.2103
 5891PP      PP15995  13.512   0.365   2.201  0.0589 -0.1162 -0.0352
 5892PP      PP15996   3.186  14.658   9.568 -0.4623  0.0054  0.1124
 5893PP      PP15997  13.590   6.151   9.514  0.1918  0.4300 -0.2590
 5894PP      PP15998  12.921   9.707  12.357 -0.1369 -0.2496  0.0554
 5895PP      PP15999  13.807   5.475   8.212 -0.2336 -0.0479  0.2502
 5896PP      PP16000   9.403  11.098   1.973  0.0396 -0.1778 -0.1633
 5897PP      PP16001  15.338   3.694  11.379  0.1500  0.0635 -0.0197
 5898PP      PP16002   9.204   0.019  12.532 -0.4605 -0.0200  0.0318
 5899PP      PP16003   5.126  14.755  13.045  0.0968  0.0663  0.2266
 5900PP      PP16004   4.449   1.218   3.707  0.2745 -0.1577 -0.2320
 5901PP      PP16005  11.296   2.835  13.111 -0.1857 -0.1901  0.3587
 5902PP      PP16006   3.190   3.817   1.759  0.3483  0.1877  0.2985
 5903PP      PP16007  10.484  11.873   1.122 -0.2387 -0.1142  0.0151
 5904PP      PP16008  11.933  14.038  12.480  0.0167 -0.1433  0.3824
 5905PP      PP16009   5.208  12.939   2.758 -0.0511  0.0254  0.0838
 5906PP      PP16010   9.368  15.166   2.333 -0.0273 -0.3197  0.1627
 5907PP      PP16011   4.012   8.942   0.700 -0.2440  0.1233  0.0462
 5908PP      PP16012   4.921   2.797   0.800 -0.0297 -0.3203  0.1909
 5909PP      PP16013  11.415  10.302   1.551  0.0619 -0.3109  0.1611
 5910PP      PP16014   8.067  10.423   2.555  0.0077  0.0871 -0.0377
 5911PP      PP16015   4.948   3.005  11.398  0.1426  0.0872  0.0401
 5912PP      PP16016   0.141   1.733   3.860  0.3437 -0.4715 -0.2791
 5913PP      PP16017   8.305  12.516   3.332  0.2819 -0.1299 -0.0557
 5914PP      PP16018   6.409  14.955  10.937  0.2504  0.0338 -0.3811
 5915PP      PP16019   3.324   1.041   0.550 -0.2112 -0.1114  0.1298
 5916PP      PP16020   3.587  15.791  10.200  0.0858  0.1607 -0.2820
 5917PP      PP16021  15.385   1.753  10.819 -0.2455  0.3188  0.2522
 5918PP      PP16022  14.352   4.327  11.695 -0.1530 -0.0166 -0.2139
 5919PP      PP16023  12.815   9.498   3.223 -0.3371  0.1213  0.1286
 5920PP      PP16024  15.607   8.962  10.619 -0.2229  0.0111  0.1658
 5921PP      PP16025   9.158  14.131   3.785  0.0667 -0.0739 -0.0881
 5922PP      PP16026   7.122   6.681  10.694  0.1461 -0.0755 -0.3820
 5923PP      PP16027   6.059   1.089   0.440  0.0811  0.0469 -0.2205
 5924PP      PP16028   8.837  15.692  12.333  0.0013  0.0587 -0.0059
 5925PP      PP16029   4.681   2.534  10.589 -0.0174  0.0394  0.0262
 5926PP      PP16030  13.496   4.379   2.674  0.0570 -0.0552  0.1091
 5927PP      PP16031   5.474  14.996  10.831 -0.1443 -0.2895 -0.1762
 5928PP      PP16032  11.223  14.726  10.846  0.1698 -0.0302 -0.3807
 5929PP      PP16033   5.264   1.379  13.273 -0.1905  0.2802  0.3689
 5930PP      PP16034   7.769  15.688  10.172  0.3409 -0.2212  0.0515
 5931PP      PP16035  15.524   0.452  10.393  0.0170  0.1914 -0.2265
 5932PP      PP16036   6.751   1.297  13.510 -0.1791  0.4249  0.0772
 5933PP      PP16037   8.611  12.382   2.382 -0.0954  0.0063 -0.2687
 5934PP      PP16038   9.988   7.542   8.654  0.0274  0.1513 -0.0436
 5935PP      PP16039  12.065   9.404   8.314  0.0858  0.2758  0.0946
 5936PP      PP16040  14.171   9.450   9.256  0.0647  0.0287 -0.1964
 5937PP      PP16041  13.316   8.926   1.785 -0.2016  0.2740 -0.0014
 5938PP      PP16042  15.378   8.028   2.427  0.1870 -0.0172  0.0895
 5939PP      PP16043   3.868  11.438  12.905  0.2901  0.1238 -0.1728
 5940PP      PP16044  11.692  10.971  13.024  0.1995 -0.1984 -0.0008
 5941PP      PP16045  15.603   0.955   2.496 -0.2203 -0.0482  0.2505
 5942PP      PP16046  14.945  12.750   9.373 -0.0185  0.0063  0.1796
 5943PP      PP16047   8.200   1.251   5.082 -0.0891  0.1286 -0.0505
 5944PP      PP16048   7.242   7.091  13.217  0.2146  0.2745  0.0441
 5945PP      PP16049   4.907   8.489   1.970 -0.0111  0.5951  0.1554
 5946PP      PP16050   8.594   3.718  11.550 -0.0809 -0.0627  0.1420
 5947PP      PP16051   5.121   8.280  12.718 -0.1092 -0.0437 -0.1130
 5948PP      PP16052  14.410   7.484  11.618  0.1029  0.1605  0.0626
 5949PP      PP16053  12.520   8.858   3.932 -0.5158  0.2276  0.0879
 5950PP      PP16054   8.331   7.658   4.033  0.1802 -0.0096 -0.1338
 5951PP      PP16055   3.759   2.352   1.234 -0.1347  0.5590 -0.1358
 5952PP      PP16056  11.090  12.612  10.974 -0.0729  0.1074 -0.0759
 5953PP      PP16057  15.132  12.071   3.504 -0.1900  0.2516 -0.1486
 5954PP      PP16058   0.357   5.858  10.015 -0.0105 -0.0666 -0.2163
 5955PP      PP16059  10.166   0.154  12.191  0.1678 -0.0236  0.0315
 5956PP      PP16060   4.381   6.318  10.740  0.1725  0.3502 -0.2012
 5957PP      PP16061  14.785   7.799   9.275 -0.0600 -0.0208 -0.1849
 5958PP      PP16062   8.161  11.299   2.939 -0.1693  0.1705 -0.0557
 5959PP      PP16063  11.667  10.558   0.557  0.0453  0.1007  0.3113
 5960PP      PP16064   9.008   6.026   9.409  0.0832 -0.0634 -0.2727
 5961PP      PP16065   8.911  12.186  13.518 -0.2625  0.0121  0.0012
 5962PP      PP16066   3.652  13.210   1.004 -0.1751  0.1080 -0.1878
 5963PP      PP16067   4.591   4.303   9.649 -0.1260  0.0493 -0.0773
 5964PP      PP16068  12.429  14.683   1.199 -0.4937 -0.0764 -0.0034
 5965PP      PP16069   3.231  14.851  13.435  0.1260 -0.2295 -0.0314
 5966PP      PP16070  15.060   0.172  10.707 -0.0718  0.0240 -0.0541
 5967PP      PP16071   5.758  11.812   2.385 -0.0546 -0.0483  0.1528
 5968PP      PP16072   9.356   3.700   4.295 -0.3950 -0.2899 -0.1120
 5969PP      PP16073   0.417  12.887  10.903  0.3466 -0.0855  0.2970
 5970PP      PP16074   2.741   0.422   9.622  0.4027 -0.1459  0.0857
 5971PP      PP16075   0.203   4.083  10.754 -0.2356 -0.0313  0.2044
 5972PP      PP16076   6.167   3.091  12.059  0.1397 -0.1893  0.0991
 5973PP      PP16077  10.568  15.230  10.987 -0.1725  0.0173  0.0727
 5974PP      PP16078   1.099  12.409   1.307 -0.4697  0.1490 -0.0796
 5975PP      PP16079  13.363   6.715   0.090 -0.3726 -0.0711  0.0018
 5976PP      PP16080  12.485   2.730  13.508  0.1080 -0.1645 -0.2147
 5977PP      PP16081   7.825  13.528   1.566 -0.0762  0.4126  0.1436
 5978PP      PP16082   8.844   5.761  11.657 -0.3554 -0.0324 -0.1224
 5979PP      PP16083   3.260   0.045   4.008  0.3596  0.0144  0.5488
 5980PP      PP16084   7.971   3.439   9.525 -0.0398 -0.2670 -0.0655
 5981PP      PP16085   1.391   6.964  12.586 -0.2676 -0.0476 -0.1556
 5982PP      PP16086   5.475  13.531  13.268 -0.0333 -0.1408  0.0309
 5983PP      PP16087   1.225   5.484   4.024 -0.2158 -0.1589 -0.0353
 5984PP      PP16088  11.704   4.745  10.622 -0.1250  0.2149  0.0163
 5985PP      PP16089   9.803   5.779   0.526 -0.2074  0.1371  0.5451
 5986PP      PP16090   6.348   5.294  13.260  0.3732  0.3502  0.1820
 5987PP      PP16091   2.006   9.947   1.114 -0.0033 -0.1229 -0.0351
 5988PP      PP16092   6.698   2.269   0.895  0.1948  0.0211  0.0063
 5989PP      PP16093  15.085  13.055   3.595  0.0165 -0.3496  0.2290
 5990PP      PP16094   5.917  14.425   4.263 -0.2048  0.1078  0.0319
 5991PP      PP16095   5.988   7.043   0.788 -0.3016  0.2687 -0.2453
 5992PP      PP16096   7.583  14.197   2.306 -0.2051 -0.0464 -0.1073
 5993PP      PP16097   4.926  11.417   0.714 -0.2049 -0.1295  0.3350
 5994PP      PP16098   6.990   9.697   3.595 -0.2837  0.0968 -0.2180
 5995PP      PP16099   8.510   3.999  10.032 -0.1023 -0.1357  0.0409
 5996PP      PP16100  14.286  12.912  10.784  0.0989 -0.0763  0.0637
 5997PP      PP16101   1.213  11.114  11.726  0.2033 -0.0025 -0.0498
 5998PP      PP16102   7.264   7.232  12.711  0.1128 -0.2626  0.0787
 5999PP      PP16103  13.982   2.540  10.604 -0.3543 -0.3107 -0.0219
 6000PP      PP16104   5.602   3.938   8.474 -0.0666  0.0122 -0.1554
 6001PP      PP16105   1.545  14.438   3.120  0.0648  0.2893  0.1284
 6002PP      PP16106   3.503   3.740   4.425 -0.1154 -0.0769  0.0559
 6003PP      PP16107   2.540  14.504   0.182  0.0224  0.0696 -0.1004
 6004PP      PP16108  15.256   2.693   8.631 -0.0847 -0.2027  0.5047
 6005PP      PP16109  12.533  14.536  12.071 -0.2170  0.1035  0.4015
 6006PP      PP16110   1.604  14.857   3.410 -0.0398 -0.2501  0.0634
 6007PP      PP16111   2.869   6.090   0.430 -0.1661  0.0911 -0.3138
 6008PP      PP16112  11.377  15.413  12.510  0.1251 -0.1257 -0.3721
 6009PP      PP16113   6.899  14.549  10.562 -0.1003  0.1508  0.4142
 6010PP      PP16114  14.369  15.680  12.559 -0.0579  0.1653 -0.0295
 6011PP      PP16115  15.595   9.333  10.109  0.0226  0.2624 -0.0764
 6012PP      PP16116   2.225  12.957   1.704  0.0648 -0.2542  0.2993
 6013PP      PP16117  11.056   8.118   9.906 -0.2336 -0.0990  0.1084
 6014PP      PP16118   6.268  13.607  10.580  0.0817  0.1295 -0.2461
 6015PP      PP16119   0.020  13.856   4.216  0.1357  0.0218  0.0522
 6016PP      PP16120   2.479   5.016   9.562 -0.0318  0.0210  0.0757
 6017PP      PP16121   4.519   8.704   0.002  0.1627  0.0820 -0.1167
 6018PP      PP16122  13.244   0.220   9.639  0.2905 -0.1786 -0.0396
 6019PP      PP16123  10.337   8.994   3.924  0.0402 -0.0079  0.3011
 6020PP      PP16124   2.253   0.398   1.885 -0.1758  0.2017  0.2362
 6021PP      PP16125   2.657  13.430  11.391 -0.0676 -0.1729 -0.0541
 6022PP      PP16126  15.276  12.251   2.516 -0.0083 -0.1247  0.0941
 6023PP      PP16127   5.556  12.238   9.934 -0.0462  0.2848 -0.0354
 6024PP      PP16128  14.700   6.189   8.519 -0.3901 -0.4923  0.1323
 6025PP      PP16129   6.731   4.637   2.681 -0.0492 -0.0849 -0.0848
 6026PP      PP16130   0.787   0.531  12.092 -0.2007 -0.1161  0.2462
 6027PP      PP16131   7.563  15.685  10.625 -0.0687  0.2029  0.1045
 6028PP      PP16132   6.686   4.532  10.642  0.2533  0.0188  0.1236
 6029PP      PP16133   6.628   1.560  11.536 -0.0981 -0.0483 -0.0717
 6030PP      PP16134  11.722   1.201  12.352  0.1043 -0.1980 -0.0386
 6031PP      PP16135   6.312   0.702   0.356  0.1168 -0.2329 -0.0062
 6032PP      PP16136   2.981   1.563   1.275 -0.1830  0.0570  0.0835
 6033PP      PP16137  10.667  11.100   3.240  0.0309 -0.0304 -0.0112
 6034PP      PP16138   5.020   6.494   3.298 -0.0614  0.1027 -0.0678
 6035PP      PP16139  11.872   0.861   0.290  0.1188  0.0168  0.0840
 6036PP      PP16140  15.482  11.686   9.883  0.1703  0.2856  0.4386
 6037PP      PP16141   8.461   1.206  12.860  0.2663 -0.4550  0.1018
 6038PP      PP16142   5.660  11.490   2.815 -0.2706 -0.0174  0.1192
 6039PP      PP16143  10.388   8.510   2.011  0.0104 -0.4835 -0.1004
 6040PP      PP16144   0.248   2.118  11.418  0.1525 -0.1292  0.0290
 6041PP      PP16145  12.180  11.314   2.984  0.0939 -0.1642 -0.0212
 6042PP      PP16146  11.778   7.108  11.793  0.0683 -0.0774  0.1174
 6043PP      PP16147  15.502  12.715  12.575  0.0708  0.0601 -0.2931
 6044PP      PP16148   7.054   3.916  13.403 -0.1524 -0.2409  0.1892
 6045PP      PP16149  13.059   4.705  13.482 -0.5196  0.1681 -0.2547
 6046PP      PP16150  15.204   2.497  10.931 -0.2713  0.0843 -0.1823
 6047PP      PP16151   9.789   1.342   5.474  0.0263 -0.1536 -0.1144
 6048PP      PP16152   9.863   4.100   9.220  0.0484  0.1281  0.1239
 6049PP      PP16153  14.880   9.266   4.394  0.0847 -0.0565  0.2742
 6050PP      PP16154  14.355   1.634  10.584 -0.1585 -0.0430 -0.2981
 6051PP      PP16155   5.615  13.915  10.528 -0.0265 -0.2368 -0.1940
 6052PP      PP16156   9.287   0.146   2.817  0.1624  0.1266  0.0153
 6053PP      PP16157  11.526  15.628   1.080 -0.0174  0.4164 -0.2143
 6054PP      PP16158  13.861  12.048   2.178  0.3982  0.1579 -0.2686
 6055PP      PP16159   8.942  12.797   2.614 -0.1348 -0.1265 -0.0982
 6056PP      PP16160  15.134   6.299  10.975 -0.1464  0.1986  0.3123
 6057PP      PP16161   0.159   8.334  11.792 -0.0950 -0.2823  0.0940
 6058PP      PP16162   5.093   9.589  11.318  0.1902 -0.1228 -0.0957
 6059PP      PP16163   4.260   9.036   1.139  0.2824 -0.0496  0.0249
 6060PP      PP16164  11.036   6.328   1.449  0.0963  0.2160  0.1848
 6061PP      PP16165   1.794  14.899   4.220 -0.0030  0.4605  0.2572
 6062PP      PP16166  14.561   5.042   3.193  0.0640 -0.1453  0.1232
 6063PP      PP16167  10.968   7.129   8.536 -0.1718 -0.4532 -0.1859
 6064PP      PP16168   1.427   2.049  13.363 -0.0670 -0.3988 -0.0582
 6065PP      PP16169  10.390   6.940   0.827 -0.1606 -0.0048 -0.1882
 6066PP      PP16170  12.359   1.521   3.590 -0.0066  0.1901  0.1042
 6067PP      PP16171  11.316   6.334  12.371 -0.0808  0.1316 -0.3176
 6068PP      PP16172   8.416  11.615  12.497 -0.1845  0.3208 -0.3676
 6069PP      PP16173  13.711   8.966   2.321  0.1053 -0.0590 -0.0700
 6070PP      PP16174   0.703   0.933   9.080  0.0290 -0.1378  0.0699
 6071PP      PP16175  15.730  15.268   4.596 -0.1907  0.2936  0.3516
 6072PP      PP16176   9.748   4.419   3.288 -0.0670  0.0769  0.0713
 6073PP      PP16177   7.987   8.662  11.857 -0.0573 -0.4879 -0.0833
 6074PP      PP16178   3.978  14.719   0.581  0.0029 -0.0232 -0.1407
 6075PP      PP16179  15.459   1.315  13.323 -0.0366  0.0446 -0.1688
 6076PP      PP16180   9.786   2.340   0.347  0.1020  0.0373 -0.4365
 6077PP      PP16181   3.382   6.926   9.045  0.2911 -0.1095 -0.0307
 6078PP      PP16182   8.341  13.519  11.133  0.0610  0.1105 -0.0095
 6079PP      PP16183   5.341  10.671  10.639  0.1003  0.0612 -0.2357
 6080PP      PP16184   9.390  10.215   1.811 -0.2175 -0.0488 -0.0116
 6081PP      PP16185  14.635  15.744  13.013 -0.0838  0.1736 -0.2805
 6082PP      PP16186   6.671  15.398  12.676  0.2537  0.1689  0.1630
 6083PP      PP16187  14.744   8.714   9.698  0.0017 -0.2576  0.4190
 6084PP      PP16188   6.665  13.714   2.796 -0.0778  0.1192  0.0328
 6085PP      PP16189   6.529  10.713  12.923 -0.1182 -0.1522  0.1920
 6086PP      PP16190   1.128  10.656   3.371  0.0861 -0.0414  0.1966
 6087PP      PP16191  12.440   0.181   3.521 -0.0494 -0.3300 -0.1421
 6088PP      PP16192   6.919  14.160  12.765 -0.2117 -0.0289  0.0911
 6089PP      PP16193  11.740   8.207   3.282 -0.1170  0.1109 -0.4219
 6090PP      PP16194   6.549   1.627   3.790  0.4994 -0.0544  0.1375
 6091PP      PP16195   8.950   5.958  10.312  0.1730  0.1004  0.1033
 6092PP      PP16196  13.488   2.176   3.919  0.0701  0.2514 -0.0355
 6093PP      PP16197   1.627  15.021   1.026  0.2819  0.1860  0.2780
 6094PP      PP16198   0.569  10.012  10.332 -0.2845  0.0736 -0.3614
 6095PP      PP16199   4.677  10.042   2.855  0.1837  0.2254 -0.0176
 6096PP      PP16200   4.223   2.027   9.867 -0.0652  0.0349 -0.1477
 6097PP      PP16201  13.270  11.821  12.989  0.0684 -0.3382  0.3302
 6098PP      PP16202  10.236   4.403  12.275  0.0843  0.0638 -0.0712
 6099PP      PP16203   8.870  13.015  12.363  0.1042  0.0242  0.0461
 6100PP      PP16204  11.408   5.922   1.501  0.0982 -0.2921 -0.0226
 6101PP      PP16205  14.247  15.302  11.499  0.1485  0.1312  0.1288
 6102PP      PP16206  11.329  12.390  12.754  0.0077 -0.1451 -0.4166
 6103PP      PP16207  11.873  13.907   1.128 -0.2587 -0.0566  0.0822
 6104PP      PP16208   0.586  11.930  10.979 -0.2361 -0.0857 -0.0312
 6105PP      PP16209   6.965  13.865   8.847  0.5752  0.1641  0.2777
 6106PP      PP16210  11.945  11.168   4.371  0.1910  0.1288 -0.2669
 6107PP      PP16211   6.087   0.492  11.340 -0.0289 -0.0033 -0.4006
 6108PP      PP16212   1.973   5.152   3.332  0.1497 -0.2298  0.1699
 6109PP      PP16213  15.412   8.400   1.053 -0.0733 -0.0663 -0.2137
 6110PP      PP16214   4.326  15.036  11.387 -0.3381  0.1767  0.0033
 6111PP      PP16215   8.441   0.447   2.646 -0.3083  0.2014  0.0336
 6112PP      PP16216   5.090  15.469  11.713 -0.2826 -0.1395  0.0343
 6113PP      PP16217   8.198  12.702  11.191  0.0514 -0.2435 -0.4300
 6114PP      PP16218  11.304   4.338   2.215  0.1133  0.1526 -0.0819
 6115PP      PP16219   6.437   9.622  11.269  0.3581 -0.3788  0.1150
 6116PP      PP16220  14.499  12.542   0.941  0.0778  0.3501 -0.0601
 6117PP      PP16221   0.054  15.223   2.152 -0.1669  0.2704 -0.2683
 6118PP      PP16222   9.493   2.700   2.322  0.2739 -0.1092  0.1290
 6119PP      PP16223   2.704   6.812   9.324  0.1338 -0.0639 -0.0346
 6120PP      PP16224   9.085   6.678  12.217 -0.1252  0.2369  0.2494
 6121PP      PP16225  15.881   9.640   9.604  0.2022  0.1388  0.2384
 6122PP      PP16226   3.106   3.766  13.268  0.0609 -0.2236 -0.1557
 6123PP      PP16227   7.070   6.942   8.933  0.0146 -0.2095  0.0100
 6124PP      PP16228   8.483   0.658  12.924 -0.3126 -0.2376  0.0993
 6125PP      PP16229  10.255  10.037   0.096  0.1205  0.2238 -0.0975
 6126PP      PP16230   5.454  11.539   0.905 -0.0723 -0.0255 -0.0367
 6127PP      PP16231   5.979   0.807  10.457 -0.1374 -0.0558 -0.2430
 6128PP      PP16232  15.221  11.082   1.930 -0.1612 -0.1412 -0.0914
 6129PP      PP16233  13.485   7.365  10.631 -0.3144 -0.0184 -0.1515
 6130PP      PP16234   7.347   0.469   3.725  0.0805 -0.0275 -0.0480
 6131PP      PP16235  10.465   5.015  10.004  0.5058  0.2866  0.0535
 6132PP      PP16236  13.686  10.230   1.267 -0.0231  0.1354 -0.2121
 6133PP      PP16237   9.030   6.431  13.256  0.1175  0.4930  0.2266
 6134PP      PP16238   8.039  12.538   9.034 -0.2414 -0.0924  0.0181
 6135PP      PP16239  13.492   5.627   9.639  0.2074  0.0795 -0.0036
 6136PP      PP16240  14.832   0.365  11.150 -0.4295  0.0658 -0.0584
 6137PP      PP16241  10.637  14.067   4.113  0.0507 -0.2967 -0.0269
 6138PP      PP16242  12.621  13.546  10.439  0.3486 -0.1612  0.0514
 6139PP      PP16243   1.220   4.371  11.814  0.0168 -0.0234  0.2769
 6140PP      PP16244   7.222   4.871   0.803 -0.1562  0.1006 -0.1312
 6141PP      PP16245   5.207   7.474  12.797 -0.0830  0.1957  0.0264
 6142PP      PP16246   9.048   9.965  11.389 -0.2742 -0.3653 -0.2776
 6143PP      PP16247   9.392   1.086  12.506 -0.2043 -0.1301  0.1373
 6144PP      PP16248   2.743   6.299   3.883 -0.0504  0.2831  0.2663
 6145PP      PP16249   2.552   0.513   0.449  0.0769 -0.0573 -0.2467
 6146PP      PP16250  15.109   6.651   3.356 -0.0400 -0.2657  0.0949
 6147PP      PP16251  15.064  14.973  11.364 -0.0408  0.2950  0.0133
 6148PP      PP16252  15.541   8.175   3.383  0.0428  0.2182  0.0860
 6149PP      PP16253   3.918   8.183   4.900 -0.0012 -0.0744 -0.2215
 6150PP      PP16254  14.362   5.028   9.744  0.5125  0.0469 -0.2106
 6151PP      PP16255  11.992   2.538  12.012 -0.2322  0.2813  0.2230
 6152PP      PP16256   3.181   4.288   1.829 -0.2021 -0.1156 -0.1070
 6153PP      PP16257   5.657   0.524   1.283 -0.2384 -0.1596  0.2609
 6154PP      PP16258   7.060  12.331   9.668 -0.0319 -0.3382  0.1157
 6155PP      PP16259   9.287   4.533  10.930  0.3542 -0.1207  0.2854
 6156PP      PP16260   5.665   5.479  12.279 -0.0652  0.2712 -0.1748
 6157PP      PP16261  10.588   1.431   2.131  0.0373  0.0329 -0.1254
 6158PP      PP16262  12.696   3.101  10.022 -0.2404 -0.2731 -0.1603
 6159PP      PP16263   7.684   7.354   8.996  0.1179 -0.0299  0.1034
 6160PP      PP16264   4.989  12.507  11.093  0.0473  0.2597 -0.3325
 6161PP      PP16265   2.910   2.848   0.686  0.0835  0.0052  0.0624
 6162PP      PP16266  15.801  11.641   3.511 -0.1977 -0.0357 -0.0424
 6163PP      PP16267   4.144   9.130   4.447  0.2151 -0.0360  0.2774
 6164PP      PP16268   4.155   1.988   0.028 -0.0425 -0.3398 -0.1365
 6165PP      PP16269   7.117   6.281   3.607 -0.1281  0.5323  0.3246
 6166PP      PP16270  15.547   6.627   0.969  0.1708  0.1299 -0.1317
 6167PP      PP16271   7.168  12.647  13.539 -0.0926 -0.1299  0.2575
 6168PP      PP16272   7.815  11.345   0.257  0.1768  0.0474  0.3773
 6169PP      PP16273  12.286   8.051  12.650  0.1211  0.0729  0.1005
 6170PP      PP16274   8.097   0.982   4.380 -0.3973 -0.1820 -0.0395
 6171PP      PP16275  14.257  10.313  11.733 -0.0553 -0.2436  0.3578
 6172PP      PP16276   2.049  11.315   9.498 -0.2325  0.1181 -0.2603
 6173PP      PP16277  13.209   3.831  13.191  0.0862 -0.1728 -0.3335
 6174PP      PP16278   8.685  13.726  11.980 -0.1272  0.1834  0.2613
 6175PP      PP16279  11.041   5.072   1.614 -0.0131  0.1899  0.0144
 6176PP      PP16280  15.813  13.644  11.557 -0.2519  0.0522 -0.0690
 6177PP      PP16281   7.372  13.943   4.611  0.0145 -0.0943 -0.0217
 6178PP      PP16282  15.191  15.735   3.855  0.1070  0.1676 -0.0935
 6179PP      PP16283   0.867   1.726   0.843 -0.1164  0.1091 -0.0680
 6180PP      PP16284   1.411   3.719   4.688 -0.0319  0.1112  0.0353
 6181PP      PP16285  12.227   3.504   4.132 -0.1674  0.2783 -0.0844
 6182PP      PP16286  11.885  10.226  10.752 -0.3155  0.0401 -0.0976
 6183PP      PP16287   3.113   0.780  11.059  0.2746  0.1964  0.0126
 6184PP      PP16288   7.775  14.018  12.096 -0.0241 -0.1373  0.0163
 6185PP      PP16289   0.695  14.446   1.913 -0.0721  0.1958 -0.1848
 6186PP      PP16290  11.007   3.417   2.676 -0.0780 -0.2741 -0.1498
 6187PP      PP16291   1.836   8.406  10.230  0.1276 -0.0631  0.2346
 6188PP      PP16292  11.236   1.882   1.871 -0.0757 -0.0596  0.1401
 6189PP      PP16293  14.538  12.168  10.125  0.0320  0.2198  0.0564
 6190PP      PP16294   3.909  10.225   9.750  0.0968  0.0007 -0.0519
 6191PP      PP16295  12.640   6.827   2.259  0.0882  0.2030  0.1699
 6192PP      PP16296   0.200   5.728  11.434  0.0740 -0.0388  0.1904
 6193PP      PP16297  15.249   6.530  12.966  0.1479  0.2558  0.0519
 6194PP      PP16298  14.706  15.430   9.293  0.0228  0.1908  0.0895
 6195PP      PP16299  12.648   1.635   9.715 -0.2499  0.0833 -0.2799
 6196PP      PP16300   9.639   4.723  13.193 -0.0761 -0.3166 -0.1106
 6197PP      PP16301  13.701   9.716   1.726  0.0678 -0.1119  0.2840
 6198PP      PP16302  14.842   5.448  12.072  0.0374 -0.0648 -0.0027
 6199PP      PP16303   2.182   6.151  12.493  0.0444 -0.0251 -0.0850
 6200PP      PP16304   7.331  12.129  10.946  0.0498 -0.1462  0.0998
 6201PP      PP16305   6.965   2.111   1.296 -0.3664 -0.2559  0.0708
 6202PP      PP16306   3.208   4.630   0.655  0.2165  0.1940 -0.0340
 6203PP      PP16307  11.023  11.467   9.193  0.0448  0.3006 -0.6838
 6204PP      PP16308  10.503   1.017  12.387  0.0276 -0.2210 -0.0340
 6205PP      PP16309   9.930   7.652  13.125  0.1209 -0.1089  0.0184
 6206PP      PP16310   3.545   3.047  12.825  0.1968  0.0206  0.3008
 6207PP      PP16311   2.763   1.148  11.138 -0.0432 -0.1300 -0.2757
 6208PP      PP16312   6.404   9.088   3.096 -0.0164  0.1023  0.2486
 6209PP      PP16313  10.606   8.369  13.260 -0.1906 -0.1758  0.1093
 6210PP      PP16314   5.244  14.708  11.774  0.0670  0.2275  0.1432
 6211PP      PP16315   8.924   2.698  12.017 -0.2391  0.0993 -0.0793
 6212PP      PP16316  13.805   4.655   9.755 -0.1625 -0.0913  0.1269
 6213PP      PP16317   9.154  14.026  13.487  0.0896 -0.3354  0.3487
 6214PP      PP16318   9.587  10.977   2.942  0.0213 -0.1644 -0.0894
 6215PP      PP16319  12.054  14.867  12.005  0.0789  0.1737  0.2646
 6216PP      PP16320   9.331  10.573   2.232 -0.2419  0.2478  0.6596
 6217PP      PP16321  12.859   7.303   9.402 -0.1957  0.1112 -0.1793
 6218PP      PP16322   2.473   9.925   9.846  0.0502  0.0084  0.2528
 6219PP      PP16323   8.402  12.563   4.400  0.1468  0.2276 -0.2400
 6220PP      PP16324   8.414  10.069  11.650 -0.2621  0.1786  0.2021
 6221PP      PP16325   6.529  11.624  12.261  0.0962  0.0808 -0.3163
 6222PP      PP16326  10.545   6.619   1.164  0.3029 -0.1427  0.1208
 6223PP      PP16327   2.155   0.410   9.878 -0.0473  0.3808  0.2448
 6224PP      PP16328   9.028   5.288   2.188  0.1221 -0.1074  0.0604
 6225PP      PP16329  14.276   4.548  12.188  0.0708 -0.1595 -0.0263
 6226PP      PP16330  11.004   9.993  10.116  0.0364 -0.0299  0.2578
 6227PP      PP16331  10.348  14.518  10.138 -0.0822 -0.1059  0.0067
 6228PP      PP16332  15.074  14.737  12.267 -0.3086 -0.0513 -0.0278
 6229PP      PP16333  15.300   4.975   9.923  0.4184 -0.0350  0.1913
 6230PP      PP16334  14.038  12.599   2.118 -0.3007  0.0970  0.2391
 6231PP      PP16335  12.446  15.569   1.202  0.2430  0.3383  0.0568
 6232PP      PP16336   8.766  14.005   0.432  0.0057 -0.0807 -0.3752
 6233PP      PP16337   6.391  15.336   0.976  0.0213 -0.2033 -0.1066
 6234PP      PP16338  12.200  11.828  11.621  0.1655  0.1505  0.1690
 6235PP      PP16339   7.078   3.445   3.995 -0.1227 -0.1224  0.1085
 6236PP      PP16340   0.708   7.243  12.436 -0.0222 -0.0639  0.0975
 6237PP      PP16341   7.328   2.722   2.988 -0.0289 -0.3068 -0.2468
 6238PP      PP16342  15.722   0.256   9.813  0.0242  0.1707  0.1568
 6239PP      PP16343   3.013   1.500   3.577 -0.1429 -0.4650 -0.0929
 6240PP      PP16344  15.523  15.749   9.026  0.1374 -0.2024  0.0173
 6241PP      PP16345   2.490   0.873   9.795 -0.3394 -0.4537  0.0677
 6242PP      PP16346   4.478   0.388   2.450  0.1733  0.3269 -0.0230
 6243PP      PP16347   9.148  11.155   1.438  0.0076 -0.2037  0.1061
 6244PP      PP16348   4.097   3.722  10.069  0.1361 -0.1090 -0.2039
 6245PP      PP16349  14.704   7.292   3.751 -0.1617  0.0703  0.3940
 6246PP      PP16350   7.713   1.519   1.418 -0.1784  0.4131  0.0818
 6247PP      PP16351   4.842   8.280   1.037 -0.2241 -0.0938 -0.2952
 6248PP      PP16352   6.594   3.192   9.384 -0.1015 -0.2011 -0.2046
 6249PP      PP16353   1.012   9.027   9.810 -0.1313 -0.0960  0.2053
 6250PP      PP16354  14.502   5.496   2.843 -0.1090  0.0117  0.4203
 6251PP      PP16355   4.003   7.190  11.024  0.0495 -0.2924  0.0310
 6252PP      PP16356  11.348   5.556   3.072  0.3185  0.1077 -0.0559
 6253PP      PP16357   9.119   3.294  12.852  0.0842 -0.0142  0.2671
 6254PP      PP16358  11.249  11.729  10.506 -0.0757 -0.0854 -0.2176
 6255PP      PP16359   0.786  13.174   1.101  0.3694 -0.0547 -0.0739
 6256PP      PP16360  15.215   3.986   0.150 -0.0174 -0.2868 -0.0696
 6257PP      PP16361   2.652  13.201   4.057  0.0193  0.5448 -0.1298
 6258PP      PP16362   1.038   3.423   1.815  0.1563 -0.0076  0.2000
 6259PP      PP16363  14.854   9.372  11.388  0.2030 -0.2625  0.0393
 6260PP      PP16364   9.586   1.380   9.730  0.0553 -0.0387  0.2900
 6261PP      PP16365  15.174   0.712  10.758 -0.0819  0.0857  0.2654
 6262PP      PP16366  13.343  10.684   1.009 -0.1379 -0.1512 -0.0678
 6263PP      PP16367   3.329   4.956   0.200  0.0206  0.0710 -0.2669
 6264PP      PP16368   7.304  13.249   9.137 -0.2024 -0.3180 -0.1648
 6265PP      PP16369   6.670  13.676   3.418  0.1150  0.0482  0.1288
 6266PP      PP16370  11.845   8.018  12.093 -0.3110  0.0429 -0.2084
 6267PP      PP16371  11.274   3.030  10.804  0.1099 -0.3287 -0.3621
 6268PP      PP16372  14.620   7.099   8.722 -0.0793  0.0225  0.0265
 6269PP      PP16373  12.144  15.771   4.984  0.0058 -0.0029 -0.2473
 6270PP      PP16374   1.985   2.205   4.780  0.0078  0.0071  0.0245
 6271PP      PP16375   9.450  10.236   9.700  0.4967  0.0436 -0.0296
 6272PP      PP16376   7.949   1.728   5.022 -0.0399 -0.0550 -0.0466
 6273PP      PP16377   2.810   6.142  11.567  0.2733 -0.0215  0.2441
 6274PP      PP16378   4.675  10.535  11.297  0.1892  0.1196 -0.1246
 6275PP      PP16379   6.874  10.012  11.699  0.1177 -0.0340 -0.0186
 6276PP      PP16380  14.057   9.888  13.086  0.3124  0.3424  0.0954
 6277PP      PP16381   8.264   4.087   0.321 -0.4059 -0.1412 -0.0909
 6278PP      PP16382   2.657   0.493   1.602  0.0465 -0.1352  0.1735
 6279PP      PP16383   7.342   7.331   0.124  0.1404  0.1491  0.1298
 6280PP      PP16384  15.277   0.891  10.205  0.0823 -0.0963 -0.3116
 6281PP      PP16385   4.010  10.868  11.310 -0.0683  0.1046  0.0068
 6282PP      PP16386   6.838   5.550   0.252 -0.5193 -0.1289 -0.5459
 6283PP      PP16387   7.587  12.008  11.483  0.1602 -0.2737 -0.0950
 6284PP      PP16388  15.462  10.752   3.371  0.0052  0.0870 -0.1498
 6285PP      PP16389   8.012   2.984   9.311  0.2356 -0.0056 -0.0752
 6286PP      PP16390  13.886   7.722   0.640 -0.0389 -0.1240  0.3556
 6287PP      PP16391   5.643   0.785   3.530 -0.0083 -0.2497 -0.0178
 6288PP      PP16392  12.206  10.296  11.223 -0.0123  0.0416  0.0191
 6289PP      PP16393   1.199  10.292  11.312  0.1214 -0.0604 -0.1236
 6290PP      PP16394   0.709   1.815  10.101 -0.2117  0.1681 -0.0887
 6291PP      PP16395   2.493   1.018   0.639 -0.2986  0.0433 -0.0668
 6292PP      PP16396  10.147  15.615   9.556 -0.0331  0.1045 -0.1151
 6293PP      PP16397   1.885  14.669   9.670 -0.0220  0.0741 -0.2504
 6294PP      PP16398   7.300   8.945   9.412  0.1468  0.0220  0.0806
 6295PP      PP16399  12.723   6.011  13.265 -0.1332 -0.2421  0.2389
 6296PP      PP16400   3.802  10.656  12.327  0.0389 -0.1542 -0.1316
 6297PP      PP16401  13.993   4.574  13.145 -0.0457 -0.5391  0.0627
 6298PP      PP16402   8.180   3.059  12.384  0.0416  0.0928  0.0919
 6299PP      PP16403   6.380   2.545   2.650  0.0066  0.0314 -0.4321
 6300PP      PP16404   0.499   7.527  11.019  0.0328  0.1033  0.0322
 6301PP      PP16405   1.849   9.599  12.267 -0.0820  0.0920  0.0911
 6302PP      PP16406   2.576   1.959   2.441  0.3240  0.2037 -0.2542
 6303PP      PP16407  14.242   5.542   9.597 -0.1925  0.1653 -0.0010
 6304PP      PP16408   8.871   0.984   4.356 -0.0229 -0.0668 -0.2884
 6305PP      PP16409   6.474   7.438   2.295 -0.1389  0.1552 -0.3222
 6306PP      PP16410   1.777  12.244  11.208  0.1820  0.6178  0.0693
 6307PP      PP16411   2.636   6.191  12.945  0.1201 -0.1107  0.0012
 6308PP      PP16412  15.638  15.212   2.807 -0.2522 -0.1888  0.0069
 6309PP      PP16413  11.243   5.496  13.269  0.0141  0.3934  0.1258
 6310PP      PP16414  11.673   6.136   1.839 -0.1599 -0.2393  0.3034
 6311PP      PP16415   1.468   8.813   1.950  0.0833  0.0286  0.1688
 6312PP      PP16416   6.377   4.457   9.164 -0.0289 -0.1451  0.3655
 6313PP      PP16417   3.007  12.600   1.306  0.0173 -0.0978  0.3949
 6314PP      PP16418   2.961  14.979   0.328  0.0074 -0.1431  0.2104
 6315PP      PP16419   3.194   4.573  11.915 -0.2694 -0.3591  0.0890
 6316PP      PP16420   1.929   2.925  12.368 -0.1220  0.0233  0.1181
 6317PP      PP16421  15.091  12.018   4.522 -0.0192 -0.1835 -0.2163
 6318PP      PP16422  12.776  14.601   9.661 -0.4236  0.1517  0.2336
 6319PP      PP16423   8.540   5.474   0.595 -0.0291 -0.1085 -0.0570
 6320PP      PP16424  14.497  10.051   8.857  0.1439  0.0861  0.1628
 6321PP      PP16425   7.566   3.821   9.029  0.0837  0.2519 -0.2853
 6322PP      PP16426   1.929   3.514  10.965  0.4460 -0.2112 -0.2787
 6323PP      PP16427   7.692   2.852   0.562  0.0011 -0.1017  0.1821
 6324PP      PP16428   2.599   8.964   2.220 -0.0532  0.0622 -0.1721
 6325PP      PP16429   3.901  12.934   9.848 -0.1779 -0.0165 -0.1453
 6326PP      PP16430  14.917   8.957  13.359 -0.1189  0.1830 -0.2648
 6327PP      PP16431  12.908   1.675  11.102  0.1671 -0.1314  0.2859
 6328PP      PP16432   9.185   1.327   4.585  0.4186  0.2686  0.0773
 6329PP      PP16433   6.047  12.789  12.121 -0.1200  0.0913  0.3110
 6330PP      PP16434   4.058   8.791  10.885 -0.1203 -0.0785  0.1819
 6331PP      PP16435   9.422  10.676  12.313  0.4315  0.0109  0.1112
 6332PP      PP16436   5.452   7.276  10.976 -0.1128  0.0110 -0.0816
 6333PP      PP16437   7.927   9.318  10.187  0.1445  0.4486  0.1023
 6334PP      PP16438   4.647  10.515   2.602  0.0402  0.2312  0.0308
 6335PP      PP16439   7.896   8.746   1.479  0.1703  0.0860  0.3074
 6336PP      PP16440   4.953  11.960   3.993 -0.1926  0.0562 -0.1457
 6337PP      PP16441   4.265   5.603   3.353  0.0795  0.1080  0.1322
 6338PP      PP16442   1.255   3.268  10.511  0.0564  0.2867  0.1577
 6339PP      PP16443   1.779  10.407   0.285  0.0017 -0.1515 -0.0987
 6340PP      PP16444   0.530  12.777  11.405  0.0475  0.1909 -0.3652
 6341PP      PP16445   0.347  14.393  10.946  0.1096 -0.0736 -0.1221
 6342PP      PP16446   3.058  14.014   8.926 -0.0326 -0.0578  0.0129
 6343PP      PP16447  11.025   6.779  13.170  0.0254 -0.2307  0.1876
 6344PP      PP16448   9.178   3.880  12.154  0.2803 -0.4388  0.0262
 6345PP      PP16449  13.069   1.777   9.119 -0.2167  0.1579 -0.2075
 6346PP      PP16450   8.569   6.869   2.975  0.3390  0.1979 -0.0857
 6347PP      PP16451   1.779   6.154   9.638  0.2885 -0.0119  0.1986
 6348PP      PP16452   8.774  14.262  12.205  0.2538 -0.0807 -0.1114
 6349PP      PP16453   7.865  14.893   8.961 -0.0597  0.1667 -0.4749
 6350PP      PP16454   0.170  15.149   3.189 -0.4431  0.1567 -0.2445
 6351PP      PP16455  11.712  13.237  11.869 -0.2408 -0.0654  0.0761
 6352PP      PP16456   8.148   1.440   2.331  0.0988 -0.2660  0.1338
 6353PP      PP16457  15.609   3.242  11.109  0.0060 -0.4276  0.1950
 6354PP      PP16458   9.190   7.718   9.871 -0.0037 -0.0237  0.3828
 6355PP      PP16459   2.862  10.247   4.782 -0.2767  0.0797 -0.0142
 6356PP      PP16460   4.463   4.195   4.106 -0.2949 -0.3127  0.2892
 6357PP      PP16461  11.617  14.268   8.737  0.2044  0.3420  0.1958
 6358PP      PP16462   2.269   5.022   0.367  0.1855  0.0122  0.2289
 6359PP      PP16463   6.073   5.180  10.272  0.1213 -0.0325  0.0532
 6360PP      PP16464   1.407  12.575  11.227 -0.0908  0.3616  0.4340
 6361PP      PP16465  12.138   4.813   9.549  0.1773 -0.1303 -0.1004
 6362PP      PP16466   1.497   0.216  13.350 -0.2816  0.1561 -0.0284
 6363PP      PP16467   4.577   7.543  13.476  0.3129  0.2485 -0.0964
 6364PP      PP16468   6.397  15.793  12.743 -0.0691 -0.1423  0.0603
 6365PP      PP16469  12.413  14.208   9.700 -0.0972 -0.2040 -0.0609
 6366PP      PP16470   0.612  13.218  10.640 -0.0175 -0.0057  0.1173
 6367PP      PP16471  12.268  15.529   0.243  0.1745  0.0557  0.1028
 6368PP      PP16472   1.761  14.283  12.407  0.1168  0.1964 -0.2696
 6369PP      PP16473   2.611   3.848   9.300  0.0341 -0.2269  0.0275
 6370PP      PP16474   2.369   3.469   9.663  0.3354 -0.3048 -0.2157
 6371PP      PP16475   3.411  11.133   4.004 -0.2309  0.2070  0.0432
 6372PP      PP16476  14.808   5.086  11.596  0.0791 -0.1473  0.0807
 6373PP      PP16477   7.616   3.591   1.356 -0.0470  0.0210 -0.0107
 6374PP      PP16478  12.072  13.919   2.097 -0.2131 -0.0896 -0.0453
 6375PP      PP16479   9.167   5.429   1.397 -0.1009 -0.2996  0.0237
 6376PP      PP16480   4.927   4.116   4.608 -0.2130 -0.1638 -0.1896
 6377PP      PP16481  12.516  15.362  10.807  0.5110 -0.4303  0.1833
 6378PP      PP16482  13.107  13.401   4.621 -0.0169  0.2472 -0.3189
 6379PP      PP16483  13.053   0.252   3.427 -0.0788 -0.0450 -0.1164
 6380PP      PP16484   4.438   9.843  11.483  0.1114 -0.1625  0.2696
 6381PP      PP16485   1.953  15.752   0.388 -0.2562 -0.3333  0.0710
 6382PP      PP16486   1.579   1.489   3.746 -0.1607  0.1034 -0.2827
 6383PP      PP16487   8.497  11.826  11.039  0.0948  0.0588 -0.0799
 6384PP      PP16488   4.435  14.409  10.635  0.2414 -0.0304 -0.2970
 6385PP      PP16489  13.312   6.650   8.856  0.0260 -0.1935  0.1370
 6386PP      PP16490   8.092   1.759  12.162  0.2872  0.2510 -0.2105
 6387PP      PP16491   4.920   4.839   2.859  0.1941  0.0418  0.2601
 6388PP      PP16492   5.289   6.690   0.048  0.1514 -0.3247 -0.1866
 6389PP      PP16493   0.048   0.647   2.844 -0.3293  0.1139 -0.2422
 6390PP      PP16494  14.849   4.399   0.049 -0.3178 -0.1552  0.1234
 6391PP      PP16495   5.287   5.412   3.377 -0.0220  0.3569  0.0125
 6392PP      PP16496   2.297   7.663   3.673 -0.1291 -0.0669 -0.0662
 6393PP      PP16497  15.405   6.519   1.700 -0.1340 -0.0787  0.0171
 6394PP      PP16498   4.423   9.991   0.743 -0.0871 -0.1356 -0.0201
 6395PP      PP16499   7.163   5.675   9.872 -0.0318 -0.3264 -0.0786
 6396PP      PP16500  11.137  12.231   3.379  0.1773 -0.0193  0.0561
 6397PP      PP16501   7.354   1.203  11.335 -0.0691  0.0622  0.1318
 6398PP      PP16502  11.776  12.711   4.290  0.0558  0.0745 -0.2798
 6399PP      PP16503  12.964   8.083   9.984  0.2652  0.0606 -0.2261
 6400PP      PP16504   7.404   8.612   3.695  0.0500 -0.2826  0.2838
 6401PP      PP16505  13.592   1.457   9.182 -0.2095 -0.1120  0.0017
 6402PP      PP16506   0.239   9.534  13.136  0.1515  0.1994 -0.0759
 6403PP      PP16507   7.266   4.737  11.375 -0.0879 -0.0854 -0.0350
 6404PP      PP16508   7.894   3.033   2.132  0.0349  0.2138  0.1390
 6405PP      PP16509  13.850   6.572   8.163  0.2283 -0.1011  0.0453
 6406PP      PP16510   4.787   7.350  13.032  0.2754 -0.0755  0.2198
 6407PP      PP16511   3.904   5.355  13.082  0.0923 -0.3004  0.1255
 6408PP      PP16512   9.455  12.570   1.579 -0.0023 -0.0245  0.0416
 6409PP      PP16513   4.696   4.086   3.606  0.0772  0.1480 -0.0768
 6410PP      PP16514   9.421  14.738  10.952 -0.2845  0.2528  0.0814
 6411PP      PP16515  14.124  13.614   4.508 -0.3341  0.2165  0.0082
 6412PP      PP16516  14.008   4.744   7.940 -0.3472 -0.1027  0.0769
 6413PP      PP16517  15.317  13.107  12.926  0.0544 -0.2206 -0.0451
 6414PP      PP16518   0.484  12.887   9.836  0.0073 -0.1499 -0.0504
 6415PP      PP16519   3.948   1.272   2.818 -0.0583 -0.0520  0.1580
 6416PP      PP16520   3.134   4.378  12.954 -0.3370  0.0421 -0.2878
 6417PP      PP16521   2.462   3.077  13.149  0.0339 -0.1026 -0.0289
 6418PP      PP16522   4.492   6.062  13.161 -0.0553 -0.1498 -0.1954
 6419PP      PP16523   2.915   7.141  13.536 -0.0257  0.3700  0.1200
 6420PP      PP16524   5.821  15.349   3.761  0.0832  0.1666 -0.2087
 6421PP      PP16525  11.510  11.295   1.336 -0.2469  0.0057 -0.2414
 6422PP      PP16526  14.660  12.542  12.043  0.1630  0.3368 -0.0907
 6423PP      PP16527  15.229  10.589  13.387 -0.1266 -0.2001 -0.1437
 6424PP      PP16528  11.110   8.532   2.437 -0.0225  0.3717 -0.2539
 6425PP      PP16529   1.241   3.046  13.001 -0.0540 -0.3077  0.0069
 6426PP      PP16530   1.842   2.495   4.078  0.0551 -0.2800  0.4937
 6427PP      PP16531   4.969   1.479   8.627 -0.0926  0.0069  0.2081
 6428PP      PP16532  14.118  10.294  10.490 -0.2480 -0.1420 -0.0768
 6429PP      PP16533  12.039   4.344   2.507  0.1416  0.1382 -0.0394
 6430PP      PP16534  11.368  15.500   4.748  0.3587 -0.3169  0.1274
 6431PP      PP16535   9.713   1.144   3.563  0.0461  0.2775 -0.2895
 6432PP      PP16536  10.142   5.790   0.132  0.0953 -0.0408 -0.1578
 6433PP      PP16537  15.780  11.341  13.175 -0.0008 -0.0038 -0.0434
 6434PP      PP16538   3.054  14.421   1.651  0.3381  0.0592  0.0960
 6435PP      PP16539   4.099  12.039   1.549  0.1576  0.0813 -0.1206
 6436PP      PP16540   6.276   0.512  10.277 -0.0756  0.1506  0.1195
 6437PP      PP16541  15.052   4.187  10.300 -0.0316 -0.2269  0.0347
 6438PP      PP16542   3.125  12.619  12.857  0.1565  0.0978 -0.0077
 6439PP      PP16543   5.905  14.542   1.330 -0.1437  0.2101  0.3132
 6440PP      PP16544  13.743   2.030   8.783  0.1594  0.1002  0.1411
 6441PP      PP16545   3.824   7.711  11.995 -0.0973  0.2401 -0.1386
 6442PP      PP16546   2.335  10.728  12.703  0.0515  0.3303  0.0953
 6443PP      PP16547   2.228   6.177   4.198 -0.2499  0.2330  0.0209
 6444PP      PP16548   7.266  11.818   3.963 -0.0014 -0.2126 -0.0141
 6445PP      PP16549   7.232   6.656  11.740  0.1100  0.0355 -0.0375
 6446PP      PP16550   5.615   9.359   4.814 -0.1069 -0.0414 -0.0092
 6447PP      PP16551   9.680  10.708  12.773  0.0462 -0.0358  0.1548
 6448PP      PP16552   4.367   2.537  12.669  0.3882  0.0962 -0.3836
 6449PP      PP16553   8.775   9.480  11.129  0.1609 -0.2313 -0.2232
 6450PP      PP16554  10.259   9.199   0.616 -0.2727  0.1015 -0.3037
 6451PP      PP16555   8.172   4.213   3.824 -0.1267 -0.1852  0.0381
 6452PP      PP16556   0.765   0.341   4.132  0.0759 -0.2901  0.0408
 6453PP      PP16557  10.791   5.847  13.346  0.1153 -0.0419 -0.0899
 6454PP      PP16558  10.048  15.601   0.623 -0.0661 -0.2905  0.0079
 6455PP      PP16559   5.742   0.643   9.541 -0.0045  0.0185  0.0846
 6456PP      PP16560  10.256   8.565  10.167  0.4559  0.0014 -0.3350
 6457PP      PP16561   0.161   9.864   9.179 -0.1143 -0.2105 -0.0581
 6458PP      PP16562   4.704  10.832   3.587 -0.0373  0.2708  0.3214
 6459PP      PP16563  10.138   1.388   0.794 -0.2373  0.1455 -0.1411
 6460PP      PP16564   4.536   7.224   2.525  0.1401 -0.0195  0.2376
 6461PP      PP16565  10.310   0.411   4.394  0.2987  0.0291  0.0524
 6462PP      PP16566   0.882   1.741   3.328  0.0418 -0.0648  0.0390
 6463PP      PP16567   6.173  13.414  11.090  0.1777 -0.3373 -0.1142
 6464PP      PP16568  14.247   2.390  13.425  0.4535 -0.0790  0.0047
 6465PP      PP16569   3.374  15.248   0.707 -0.1127 -0.0814 -0.3758
 6466PP      PP16570   4.648   9.284   0.016  0.2651  0.2115  0.1413
 6467PP      PP16571  12.225   2.417   9.599 -0.3320 -0.1703  0.0534
 6468PP      PP16572   6.153  14.080   1.655  0.4258  0.0498  0.0306
 6469PP      PP16573  15.449  10.486  12.911 -0.1107 -0.1192  0.0621
 6470PP      PP16574  10.179   3.182  11.200 -0.2074  0.0317  0.2665
 6471PP      PP16575   3.485  14.500  13.109 -0.2744  0.1364 -0.2261
 6472PP      PP16576   2.744   1.835   3.306  0.1826  0.1406 -0.1128
 6473PP      PP16577   2.920   7.042  12.924  0.3470  0.3066 -0.1287
 6474PP      PP16578   7.627  14.291   0.161  0.1944 -0.2115  0.1474
 6475PP      PP16579  14.828  11.441   2.072  0.0510  0.1249  0.1061
 6476PP      PP16580   6.255   4.512   0.445 -0.3581 -0.1331 -0.1466
 6477PP      PP16581  12.042   6.070   3.307 -0.0932  0.5551  0.1775
 6478PP      PP16582  12.492   2.762   1.558  0.0326  0.3254 -0.0707
 6479PP      PP16583  13.302   9.801   2.136 -0.1837  0.0882  0.0301
 6480PP      PP16584   2.863   6.590   9.737  0.0902  0.0382 -0.1704
 6481PP      PP16585   8.820   7.535  12.509  0.0366  0.1001  0.1755
 6482PP      PP16586  15.591   0.958  10.616  0.4635 -0.2755  0.2824
 6483PP      PP16587  13.883   4.793  12.370 -0.0457 -0.1886 -0.0883
 6484PP      PP16588   6.272   4.401  13.502 -0.0986  0.2588 -0.2720
 6485PP      PP16589   7.684   3.677   2.907  0.1614  0.0816  0.0508
 6486PP      PP16590  10.257   9.617   9.794 -0.1908 -0.0556  0.4762
 6487PP      PP16591  10.571  11.216   1.805  0.1677 -0.0725 -0.1357
 6488PP      PP16592   6.288   6.645  13.338 -0.1775  0.1992  0.2038
 6489PP      PP16593   4.965  14.791  10.804 -0.1668 -0.0960  0.3456
 6490PP      PP16594   4.404   7.043  12.788  0.1933 -0.2069 -0.2409
 6491PP      PP16595   5.751  13.573  10.906 -0.1875 -0.1683 -0.0407
 6492PP      PP16596   4.204  10.109   3.475 -0.2540 -0.1484  0.2163
 6493PP      PP16597   0.945   4.258   2.315 -0.0472 -0.0681 -0.1459
 6494PP      PP16598   4.228   3.722   3.788  0.0964  0.2313  0.0243
 6495PP      PP16599   4.599  10.410   9.269 -0.1893  0.0603 -0.0266
 6496PP      PP16600   3.425  14.755   3.506  0.3778  0.3553 -0.1077
 6497PP      PP16601   9.980   2.702   3.270  0.0516 -0.0387  0.1626
 6498PP      PP16602   9.773   6.793   3.752  0.1700  0.1248  0.0274
 6499PP      PP16603   0.482   8.541   3.561  0.2477 -0.0730  0.2093
 6500PP      PP16604   2.594   5.006   0.006 -0.4252 -0.0795 -0.0433
 6501PP      PP16605  14.365   4.158   2.741 -0.1027  0.2742 -0.0030
 6502PP      PP16606   8.309   7.424  11.867  0.0357 -0.0552  0.4829
 6503PP      PP16607   1.515  14.912   2.015 -0.0684  0.0796  0.1456
 6504PP      PP16608  14.022   2.017   0.221  0.0037  0.1995  0.2909
 6505PP      PP16609   5.575  13.290  11.938  0.1108  0.1209  0.1593
 6506PP      PP16610  14.612   7.435   3.299 -0.2992 -0.3038  0.0137
 6507PP      PP16611   3.144   8.282   2.058  0.1235  0.1943 -0.0913
 6508PP      PP16612   4.579   5.798  10.422  0.3624  0.1937  0.0410
 6509PP      PP16613  13.392  15.518   1.299 -0.1158 -0.1096  0.1710
 6510PP      PP16614   4.832  15.793  12.179  0.0866 -0.0721 -0.0317
 6511PP      PP16615   4.624   1.272   4.368  0.2597 -0.0718 -0.0636
 6512PP      PP16616  13.181   3.354   0.499 -0.1820  0.1305  0.2968
 6513PP      PP16617  14.947   8.417   0.827 -0.1257 -0.2234  0.0242
 6514PP      PP16618  15.233   9.717  12.655  0.3745 -0.1892  0.1394
 6515PP      PP16619   8.616  15.698   9.749  0.0037 -0.0528  0.1617
 6516PP      PP16620   6.007   9.250  11.483  0.1075  0.2137 -0.0262
 6517PP      PP16621   8.985  11.474   4.769 -0.3010 -0.0172  0.4284
 6518PP      PP16622   0.827  12.628   0.857 -0.0522  0.0000 -0.0799
 6519PP      PP16623  12.040   9.654   0.519 -0.2275  0.0872 -0.0027
 6520PP      PP16624   7.295  10.015  10.654  0.0631  0.0488  0.2258
 6521PP      PP16625   3.201  13.933   2.356 -0.3106  0.0461  0.0364
 6522PP      PP16626   1.743   7.170  11.807  0.0930 -0.2135  0.1446
 6523PP      PP16627   9.873   3.809   4.168  0.0671  0.2242  0.2148
 6524PP      PP16628   8.076  15.211   9.332 -0.2390  0.2720 -0.0616
 6525PP      PP16629   1.496  13.362  13.015 -0.0849  0.1827 -0.0958
 6526PP      PP16630   7.986   5.151   8.845 -0.3919 -0.2354 -0.2509
 6527PP      PP16631  15.490   6.862   0.491 -0.5670 -0.4571  0.1516
 6528PP      PP16632   4.924  13.076  10.711 -0.1067  0.0189 -0.2884
 6529PP      PP16633  15.287  13.705   2.615 -0.4323  0.0782  0.2253
 6530PP      PP16634   5.466  14.204  11.472 -0.1167  0.0038  0.0734
 6531PP      PP16635  11.563  14.589   3.987  0.1030 -0.0446  0.0341
 6532PP      PP16636  11.430  14.749   0.717  0.2950 -0.0281 -0.4311
 6533PP      PP16637  14.763   4.547   8.486  0.0135  0.0373  0.1447
 6534PP      PP16638   8.406   8.986  11.712  0.0098 -0.0564  0.2519
 6535PP      PP16639   7.478  11.567  11.682  0.1144  0.1030 -0.0460
 6536PP      PP16640   3.410   8.159  11.445 -0.1098 -0.1296  0.1201
 6537PP      PP16641   8.936   1.865   3.710  0.0949 -0.2588 -0.1562
 6538PP      PP16642  14.455  15.092   0.734 -0.2541  0.0032 -0.1169
 6539PP      PP16643   0.086   5.967   3.267 -0.3753  0.0683 -0.2344
 6540PP      PP16644  10.590  15.876  12.916  0.1980  0.1890 -0.2872
 6541PP      PP16645   1.302   8.639   3.418  0.4857 -0.3972  0.2568
 6542PP      PP16646   2.106  10.275   9.917  0.0022  0.1630  0.0869
 6543PP      PP16647  12.310  14.053  13.260  0.2575 -0.0496  0.2427
 6544PP      PP16648  12.368   1.567   1.056 -0.0962  0.0110 -0.0797
 6545PP      PP16649  11.647  15.091   3.918  0.0479 -0.1624 -0.2161
 6546PP      PP16650  12.805   5.182  13.286 -0.1768 -0.1363  0.0458
 6547PP      PP16651   7.507   1.247  10.208 -0.1583 -0.2002 -0.1762
 6548PP      PP16652  11.049  13.271   1.141 -0.2888 -0.1712 -0.1491
 6549PP      PP16653   5.434  15.412  10.381  0.0834  0.1151 -0.1597
 6550PP      PP16654  11.234   0.142   1.940  0.0024  0.2485 -0.1054
 6551PP      PP16655   0.656   3.902   8.549 -0.1478 -0.0767 -0.1213
 6552PP      PP16656  11.533  14.063   4.029 -0.0232  0.1128 -0.1456
 6553PP      PP16657  14.312   0.977  11.056  0.4259  0.1238  0.2059
 6554PP      PP16658   6.355   7.179  11.845 -0.6115  0.0471 -0.0633
 6555PP      PP16659   5.828   6.129   4.421  0.0105  0.1460  0.0311
 6556PP      PP16660   5.381   0.329   9.821 -0.1029  0.1582 -0.1278
 6557PP      PP16661   9.330   5.482  12.927  0.0498 -0.0440 -0.2942
 6558PP      PP16662   4.506  15.256  11.805 -0.1269 -0.1574 -0.2123
 6559PP      PP16663  12.551   6.852   7.984  0.3202  0.1956  0.1490
 6560PP      PP16664   3.410   4.794  12.806  0.0233 -0.1290 -0.4463
 6561PP      PP16665  14.286  11.759  11.462  0.0299 -0.2403 -0.1545
 6562PP      PP16666   9.349  14.741   5.894 -0.0127 -0.2250  0.0832
 6563PP      PP16667   7.514   7.467  13.107  0.0874 -0.2537 -0.0616
 6564PP      PP16668   4.072   8.752  12.882 -0.0541  0.1033 -0.1940
 6565PP      PP16669  10.950   9.991   1.725 -0.0987 -0.1060 -0.2575
 6566PP      PP16670  15.770   3.793   9.343  0.3385 -0.1964 -0.0791
 6567PP      PP16671   8.104  10.247   0.747  0.2104 -0.2862 -0.0857
 6568PP      PP16672   7.697   3.069   3.948 -0.0147 -0.0571  0.1756
 6569PP      PP16673   1.513  15.611  13.241 -0.1107  0.0545  0.1764
 6570PP      PP16674   8.875   8.762   1.675 -0.0284 -0.0582 -0.0250
 6571PP      PP16675  13.798   9.204   1.853  0.1401  0.2269 -0.3224
 6572PP      PP16676   6.788   5.081  12.463 -0.2605  0.2354 -0.0772
 6573PP      PP16677   9.403   1.238   9.265  0.2604  0.0233  0.1478
 6574PP      PP16678   7.644   7.353   8.536 -0.0077 -0.0974 -0.0331
 6575PP      PP16679   7.729  14.488  10.486 -0.4010  0.1877  0.1662
 6576PP      PP16680   7.824  12.181   4.614  0.0697 -0.0249 -0.3005
 6577PP      PP16681  15.388  10.599   1.856 -0.0275  0.0124 -0.0156
 6578PP      PP16682   4.934   1.637   3.790 -0.0253  0.0196 -0.0979
 6579PP      PP16683   2.627   5.614  11.743  0.0007 -0.1152  0.0684
 6580PP      PP16684   5.557   7.175   9.320 -0.1137  0.3369  0.1143
 6581PP      PP16685   3.885  14.448  12.309  0.1500 -0.2011 -0.5398
 6582PP      PP16686  10.573   8.924  11.550  0.2180  0.1062  0.2105
 6583PP      PP16687  14.839   6.570   9.756  0.0999 -0.3792  0.1583
 6584PP      PP16688   3.999   8.186   8.818 -0.3983  0.0038  0.0806
 6585PP      PP16689  11.248  11.717   3.502  0.1184  0.2997 -0.0672
 6586PP      PP16690   3.853  12.096   0.551 -0.2295  0.1081 -0.1091
 6587PP      PP16691  10.520   3.241   0.022 -0.0860 -0.0208 -0.1471
 6588PP      PP16692  11.632  11.386   2.279  0.2014  0.1605  0.0501
 6589PP      PP16693   1.498   5.403   0.724  0.2201 -0.0172  0.0478
 6590PP      PP16694   0.282   2.693  11.535  0.1165 -0.0418  0.1266
 6591PP      PP16695   7.848  13.675   8.571  0.2420  0.1192  0.0619
 6592PP      PP16696   2.847   4.761   0.991 -0.2152  0.1048 -0.0856
 6593PP      PP16697  12.057   0.362   4.848  0.1068  0.3956 -0.1926
 6594PP      PP16698   9.327  13.599  12.894  0.0373 -0.0808  0.1541
 6595PP      PP16699  11.393   9.738   1.060 -0.0712  0.1584  0.1444
 6596PP      PP16700   0.152  14.174  11.398 -0.1325 -0.0447  0.0755
 6597PP      PP16701   8.329  13.035   1.827  0.1742 -0.1141 -0.2787
 6598PP      PP16702  14.344  14.776  11.199 -0.0148 -0.2071 -0.0299
 6599PP      PP16703  15.546   8.259  11.668 -0.2122  0.2357 -0.0021
 6600PP      PP16704  13.311  12.131   0.331 -0.1069 -0.0398 -0.2704
 6601PP      PP16705  13.102   1.464   0.129  0.0516 -0.1923  0.1402
 6602PP      PP16706  15.116   3.654  10.326  0.1302 -0.0284 -0.1250
 6603PP      PP16707   6.513   9.023   4.616 -0.4768  0.0869 -0.1240
 6604PP      PP16708  12.428   0.497   4.387  0.1590 -0.0985  0.0498
 6605PP      PP16709  10.047   7.911   8.984 -0.0997  0.1728  0.0052
 6606PP      PP16710  13.677   8.878   1.391  0.2087  0.1169  0.2093
 6607PP      PP16711   8.582  13.363   9.039 -0.1430 -0.0184  0.0237
 6608PP      PP16712   9.023  15.205   0.359  0.2441  0.1016 -0.0629
 6609PP      PP16713   5.517  11.545  10.590 -0.0852 -0.2975  0.1367
 6610PP      PP16714  11.128   0.970  11.317 -0.3254 -0.1074  0.1349
 6611PP      PP16715   5.343   0.331   3.574  0.0256  0.1498  0.0492
 6612PP      PP16716  15.731   1.327  10.205 -0.0893  0.1536 -0.0853
 6613PP      PP16717  10.937  12.903   3.670  0.0050  0.0501 -0.0069
 6614PP      PP16718   7.427   3.862   4.680  0.1208  0.1627  0.3473
 6615PP      PP16719   6.915  10.428   0.636  0.0179  0.1729 -0.1196
 6616PP      PP16720  15.605   7.531  10.152 -0.1934  0.1553 -0.2960
 6617PP      PP16721   7.966  11.586   9.730 -0.3924 -0.0085 -0.0411
 6618PP      PP16722   2.232   1.661   4.089  0.1237  0.1793  0.2319
 6619PP      PP16723   1.746   0.996   0.075  0.0823 -0.0035  0.0141
 6620PP      PP16724  14.742   8.886  10.655  0.2125  0.1971  0.1041
 6621PP      PP16725   3.357   4.204   4.224 -0.0071 -0.0203 -0.2303
 6622PP      PP16726   4.790   4.298   2.958 -0.0052 -0.1629  0.0411
 6623PP      PP16727   2.212   8.494   1.656 -0.0818 -0.0669  0.1194
 6624PP      PP16728  13.059  11.383  11.323  0.0200 -0.0513  0.0247
 6625PP      PP16729   1.364   8.079  11.463  0.0406 -0.1440  0.1024
 6626PP      PP16730  11.285   1.551   0.073 -0.2614 -0.2935 -0.2022
 6627PP      PP16731  14.464  13.189   4.255 -0.3198 -0.1448  0.1682
 6628PP      PP16732   9.234   8.214   3.355 -0.0262  0.2415  0.2194
 6629PP      PP16733  11.194  13.230  11.406  0.4142  0.6275  0.1936
 6630PP      PP16734   3.644   6.281  11.442 -0.0289 -0.3243  0.2042
 6631PP      PP16735   7.517  11.380   8.907 -0.0453 -0.0885  0.0372
 6632PP      PP16736  13.768   1.351   3.171 -0.1441  0.2561  0.2003
 6633PP      PP16737   2.462   8.130   2.292 -0.1551  0.2962 -0.2026
 6634PP      PP16738   4.253   4.814   4.852 -0.0964 -0.2057  0.2348
 6635PP      PP16739  11.150  10.745   3.159 -0.1148  0.2443  0.1552
 6636PP      PP16740   7.326  14.838  10.434  0.2137  0.0419  0.0662
 6637PP      PP16741  12.127   7.631   2.015  0.0721 -0.2171 -0.0605
 6638PP      PP16742   0.037   0.340   9.359 -0.1290 -0.2394 -0.1802
 6639PP      PP16743   0.447  11.539  10.193 -0.1289 -0.0501 -0.0585
 6640PP      PP16744   7.283  10.764   2.511  0.4854 -0.0733  0.3243
 6641PP      PP16745  13.115  15.355  10.002 -0.1181  0.3031  0.0189
 6642PP      PP16746   5.447   4.015  13.189  0.1797  0.0328 -0.3382
 6643PP      PP16747  11.794   8.834   1.042 -0.1731 -0.0448  0.0451
 6644PP      PP16748   7.902   4.395  11.230 -0.3827  0.0959  0.3240
 6645PP      PP16749   1.811   6.784   4.080  0.0114 -0.1375  0.2028
 6646PP      PP16750  15.371   0.854   9.646 -0.2795 -0.1668  0.2467
 6647PP      PP16751  10.228   0.851  11.594 -0.1922  0.1048 -0.1242
 6648PP      PP16752   8.566  15.583  13.163 -0.0288 -0.0568  0.2294
 6649PP      PP16753   5.928   7.496   9.673  0.1928 -0.0164  0.1062
 6650PP      PP16754   2.981  10.661   4.195 -0.2886 -0.1571 -0.0002
 6651PP      PP16755   9.410   6.878   8.604  0.0788 -0.4721 -0.2180
 6652PP      PP16756   4.126   7.534   8.797  0.2464  0.1366 -0.0464
 6653PP      PP16757  13.389   8.669  10.455  0.1213  0.1879 -0.1475
 6654PP      PP16758   7.138  12.302   1.207  0.0834  0.0245  0.0779
 6655PP      PP16759  15.525   9.564   8.950  0.0657 -0.1785 -0.2124
 6656PP      PP16760   2.490   1.022   1.666  0.3432  0.1134  0.1490
 6657PP      PP16761   5.589  13.381  11.412 -0.3688  0.0296  0.1276
 6658PP      PP16762  11.489   3.896  10.405 -0.2043  0.0873  0.0820
 6659PP      PP16763   4.372  15.501   4.360 -0.0837  0.0702  0.2223
 6660PP      PP16764  11.224  12.371   9.786 -0.1269 -0.3950 -0.1136
 6661PP      PP16765   4.241   6.371  11.429  0.0566 -0.0788  0.3316
 6662PP      PP16766   6.432  14.476   4.357 -0.1790  0.0005 -0.2650
 6663PP      PP16767   7.144   4.817   8.977 -0.2439  0.0926 -0.1708
 6664PP      PP16768   6.210   8.968   1.934  0.0234  0.0059 -0.2123
 6665PP      PP16769   0.105   8.618   0.996  0.0760 -0.0612  0.0716
 6666PP      PP16770   1.843  11.737   2.697  0.0071  0.0507  0.2618
 6667PP      PP16771   1.850  10.312  10.666 -0.1212  0.1763  0.2014
 6668PP      PP16772  13.100  10.766   3.089  0.1982 -0.0023 -0.2176
 6669PP      PP16773   1.448   4.988  11.296  0.0700 -0.2698  0.0912
 6670PP      PP16774   2.500  14.108   9.050  0.0040 -0.2315  0.1452
 6671PP      PP16775   3.871   7.862   1.355  0.3278 -0.0532 -0.3692
 6672PP      PP16776  13.289   1.017  11.229 -0.1739  0.0267  0.2381
 6673PP      PP16777   8.738   8.639   1.122  0.1022 -0.3020  0.0816
 6674PP      PP16778   7.301  11.522   0.068 -0.2961 -0.3174  0.0485
 6675PP      PP16779  15.723   4.874  10.231  0.2761 -0.0319  0.2355
 6676PP      PP16780   8.276   2.850   3.116 -0.1177  0.0128 -0.1122
 6677PP      PP16781  11.251  15.178  12.055 -0.0213 -0.3459  0.0315
 6678PP      PP16782  14.764   7.830   2.736 -0.1612 -0.3978 -0.1755
 6679PP      PP16783   3.378   5.720   2.823  0.2876 -0.0238  0.1643
 6680PP      PP16784   4.051   6.674   3.091 -0.2388  0.1814 -0.2240
 6681PP      PP16785  14.669   6.940   0.517 -0.0043  0.0207 -0.0266
 6682PP      PP16786   7.881   5.489  10.900 -0.0149 -0.0897 -0.1028
 6683PP      PP16787   0.666  15.633  10.189  0.0009 -0.1191  0.1312
 6684PP      PP16788   1.047   0.007  10.832 -0.5243 -0.0857 -0.1591
 6685PP      PP16789   8.115   6.990  12.156  0.1759  0.2088 -0.0134
 6686PP      PP16790  13.805  10.862   2.774  0.0627  0.0854 -0.4007
 6687PP      PP16791   9.897   9.057  12.092  0.1575  0.0249 -0.0400
 6688PP      PP16792   9.554   1.156   0.199  0.1111  0.4075  0.2933
 6689PP      PP16793   3.349   6.214   0.517  0.0118 -0.1246 -0.1918
 6690PP      PP16794  11.012  14.785   1.976  0.0750 -0.0787  0.1976
 6691PP      PP16795  12.336   6.699  10.028 -0.1777  0.1439  0.0290
 6692PP      PP16796   0.450   9.953   9.618  0.1041 -0.1557  0.1385
 6693PP      PP16797  12.927   9.172   0.290  0.2339 -0.0047  0.1987
 6694PP      PP16798  11.857   5.676   8.493 -0.2135 -0.0847  0.0278
 6695PP      PP16799  15.587   3.456   2.848 -0.0949  0.0451 -0.3338
 6696PP      PP16800   5.494  12.557  11.226 -0.2648  0.1441 -0.0086
 6697PP      PP16801  12.900  13.641  11.586  0.1191 -0.0411  0.0767
 6698PP      PP16802  10.857   4.210   2.054  0.4555  0.2867  0.0399
 6699PP      PP16803  13.651  14.558  10.576 -0.0440 -0.1250 -0.0434
 6700PP      PP16804  11.209   0.214   2.506 -0.0484  0.3170 -0.0151
 6701PP      PP16805   2.376   9.926  12.682  0.0330 -0.0036  0.2461
 6702PP      PP16806   7.790   4.827   3.788 -0.2335 -0.2368  0.0648
 6703PP      PP16807   8.256   4.717   9.599  0.2153 -0.0115 -0.3784
 6704PP      PP16808   3.299  10.304   4.217 -0.0664  0.2095  0.1575
 6705PP      PP16809   5.482  14.486  10.600  0.3816 -0.3495  0.0459
 6706PP      PP16810  14.814  10.926   2.178  0.1733  0.3501 -0.1994
 6707PP      PP16811   8.226   1.553   0.197  0.0296 -0.1171 -0.3645
 6708PP      PP16812   2.021  11.572   0.808 -0.0297 -0.0553 -0.0660
 6709PP      PP16813  12.857   3.506  11.751 -0.0275 -0.0085  0.3019
 6710PP      PP16814   6.621   0.953   9.570  0.0983 -0.1085 -0.3788
 6711PP      PP16815  15.872   2.710   0.350  0.2946  0.1805  0.3944
 6712PP      PP16816  14.146   5.707   7.648  0.0220  0.0635  0.1482
 6713PP      PP16817  13.598  14.761   3.859  0.0685  0.2583  0.0201
 6714PP      PP16818   8.909   2.734  10.832  0.0188  0.0570 -0.0704
 6715PP      PP16819  15.116   7.447  12.169  0.4821  0.0124 -0.6146
 6716PP      PP16820   9.956   0.420   0.854 -0.1277  0.0825  0.3391
 6717PP      PP16821   1.531   0.783   9.487 -0.2603  0.1395  0.2458
 6718PP      PP16822   7.261   7.389   1.014  0.1036  0.0784 -0.0502
 6719PP      PP16823   5.942   3.601  12.106 -0.0344 -0.1541 -0.1112
 6720PP      PP16824  14.416   9.121   4.225  0.1297 -0.1642  0.0518
 6721PP      PP16825   0.273   9.157  12.786 -0.1002 -0.2760  0.3593
 6722PP      PP16826   6.339   6.540   1.645  0.1149 -0.4676 -0.1639
 6723PP      PP16827   3.565   4.275   4.745 -0.3199  0.2609 -0.1546
 6724PP      PP16828  10.680  15.121   1.930  0.0191 -0.1865  0.1329
 6725PP      PP16829   8.485   7.136   4.123 -0.3201 -0.0548  0.1395
 6726PP      PP16830   9.600  13.491   2.662  0.4110 -0.4126 -0.1956
 6727PP      PP16831  13.371   7.155  13.411 -0.0173 -0.1831 -0.1807
 6728PP      PP16832   3.872  11.665   0.328  0.2094  0.3153 -0.1074
 6729PP      PP16833   7.013  11.045   2.087  0.0628 -0.2413 -0.0585
 6730PP      PP16834  14.303   0.455   9.540 -0.1499  0.2084  0.2246
 6731PP      PP16835  11.521   2.550   3.856  0.3943 -0.1072 -0.3771
 6732PP      PP16836   6.085  15.581   3.434 -0.2916 -0.2863 -0.2233
 6733PP      PP16837  15.713   0.574  10.909  0.0773 -0.0362  0.2756
 6734PP      PP16838  10.629  12.234   9.698  0.1230  0.2656 -0.1477
 6735PP      PP16839   4.775   5.632   9.541  0.2719  0.0450  0.0477
 6736PP      PP16840   7.316   9.888   9.671  0.0367 -0.0103 -0.2686
 6737PP      PP16841  13.756  13.207  12.693 -0.0480  0.0486 -0.3525
 6738PP      PP16842   9.498   0.602   2.439 -0.1445 -0.3903 -0.1196
 6739PP      PP16843   3.652   5.878  12.746  0.2133  0.1931 -0.0607
 6740PP      PP16844  11.054   5.630  10.730  0.0660 -0.1020  0.3180
 6741PP      PP16845   7.553   7.661   2.287 -0.0591 -0.2215  0.0112
 6742PP      PP16846   2.955   8.064   4.412  0.1674  0.0669  0.4888
 6743PP      PP16847   8.610  14.822  10.967  0.0799 -0.0589  0.0098
 6744PP      PP16848  10.791  11.890  11.631 -0.1102 -0.0834 -0.1357
 6745PP      PP16849  13.285  13.242   3.093  0.4385 -0.0134  0.0927
 6746PP      PP16850   4.652   2.029  10.655 -0.0003 -0.1353  0.0002
 6747PP      PP16851   1.802   6.032   4.052  0.3680 -0.2830  0.1360
 6748PP      PP16852  11.079  13.745   0.333  0.0446  0.1565  0.1549
 6749PP      PP16853  12.481   1.478   4.816  0.1413 -0.0711  0.2319
 6750PP      PP16854   0.026   2.364  13.148 -0.0577  0.2536  0.3405
 6751PP      PP16855  14.330   4.174   0.929  0.0396  0.3359  0.0245
 6752PP      PP16856  14.006   3.727   1.521 -0.1348 -0.1566  0.1138
 6753PP      PP16857   3.097  10.555   9.018  0.1952 -0.0672  0.3985
 6754PP      PP16858  14.797   3.985   9.757 -0.0873  0.1157 -0.1508
 6755PP      PP16859   9.472   7.009  12.417  0.2841 -0.1023 -0.0224
 6756PP      PP16860   2.341  15.422   3.255  0.2040 -0.0053  0.2492
 6757PP      PP16861   5.874  11.963  10.804  0.4306 -0.0154  0.0081
 6758PP      PP16862   5.346   9.880   4.415  0.0279 -0.1516 -0.1826
 6759PP      PP16863   4.808   1.977   3.443 -0.3543 -0.2597  0.1826
 6760PP      PP16864   6.129  10.084  12.861  0.1748  0.2744  0.0877
 6761PP      PP16865   1.266   3.227   9.458 -0.2343 -0.0792  0.1309
 6762PP      PP16866   8.654   2.222   0.746  0.1414 -0.1161 -0.0414
 6763PP      PP16867  11.156   0.482   4.597  0.1164 -0.0265  0.2613
 6764PP      PP16868   3.757   5.771   2.447  0.1253  0.0160 -0.1070
 6765PP      PP16869   6.346   6.043   0.852  0.0397  0.0001  0.0956
 6766PP      PP16870   4.106   6.275   4.040  0.3295 -0.1107 -0.0212
 6767PP      PP16871   7.903  12.994  12.027  0.0337 -0.0507  0.0288
 6768PP      PP16872   5.422   5.169  12.641 -0.0223 -0.0264 -0.2410
 6769PP      PP16873   2.442   4.440   9.426  0.0151  0.0788 -0.1748
 6770PP      PP16874  11.336  14.879   9.500  0.3046 -0.0659 -0.0146
 6771PP      PP16875   0.310   5.177  10.194 -0.0319 -0.1853 -0.0478
 6772PP      PP16876   2.989   3.913   0.188 -0.4841 -0.2298 -0.0848
 6773PP      PP16877   2.272  14.264  11.567  0.0341 -0.2015  0.0365
 6774PP      PP16878   5.463  10.649  12.929 -0.2564 -0.2448  0.0579
 6775PP      PP16879   1.208   0.206   0.337  0.1580 -0.1583 -0.2614
 6776PP      PP16880  12.742   9.811   1.310 -0.3217 -0.4972 -0.0152
 6777PP      PP16881  14.996   2.194  10.423 -0.2275  0.1127  0.1138
 6778PP      PP16882   9.540   2.976   3.225 -0.0642  0.0821 -0.1697
 6779PP      PP16883   6.498  10.095  10.214  0.1280 -0.1221 -0.1531
 6780PP      PP16884   1.750   0.390  10.421  0.1850 -0.1152  0.1264
 6781PP      PP16885   4.932   2.462   9.930 -0.2925 -0.2731  0.0692
 6782PP      PP16886   7.719   3.065  12.692  0.0378 -0.0050 -0.0143
 6783PP      PP16887   8.660   6.204   4.135  0.1887 -0.2994  0.1388
 6784PP      PP16888   0.470  15.572   0.598  0.0950  0.0074  0.2142
 6785PP      PP16889   6.585  12.588   9.985  0.3293 -0.2321  0.1311
 6786PP      PP16890   7.103  13.030   3.681 -0.0456 -0.1707  0.1447
 6787PP      PP16891   5.405   9.202  11.181  0.2566 -0.1408 -0.1840
 6788PP      PP16892   5.921  15.476  13.247 -0.1544  0.0494 -0.0600
 6789PP      PP16893   8.076   4.263  13.009 -0.1350  0.3803 -0.1198
 6790PP      PP16894   6.135   6.107  10.343  0.0705 -0.0792  0.0731
 6791PP      PP16895   2.611   4.759   4.151 -0.0726  0.0139  0.1890
 6792PP      PP16896   0.314  14.250   0.986  0.1417 -0.0398 -0.2768
 6793PP      PP16897   7.838  10.801  13.000 -0.0542 -0.2494 -0.0459
 6794PP      PP16898   0.408  11.055   4.457 -0.1224  0.0343  0.0354
 6795PP      PP16899   7.497   0.571  12.073 -0.0134  0.3736  0.0543
 6796PP      PP16900   2.630   3.129   1.537  0.2151 -0.0078 -0.4138
 6797PP      PP16901   0.013   7.549  13.297 -0.0818  0.1547  0.0407
 6798PP      PP16902  10.532  15.352   3.324 -0.0950 -0.1336  0.1017
 6799PP      PP16903   8.873   8.963  10.439 -0.1528 -0.0312  0.1568
 6800PP      PP16904   0.454  11.489  11.165  0.0989 -0.0343 -0.0326
 6801PP      PP16905  11.025   7.576  11.539 -0.1870 -0.0609  0.0319
 6802PP      PP16906   5.757   3.787  12.524  0.3148 -0.1158  0.0582
 6803PP      PP16907  11.711   9.039   1.539 -0.2890 -0.3041 -0.0760
 6804PP      PP16908   3.330   9.155  11.321  0.0273  0.1852  0.2164
 6805PP      PP16909  13.307  11.055   2.760  0.0732  0.0214  0.1812
 6806PP      PP16910   9.910   0.636  11.912 -0.2465 -0.2337 -0.2970
 6807PP      PP16911   6.736   4.366   2.261 -0.1000  0.0948 -0.1090
 6808PP      PP16912   6.257   3.890  13.369  0.0012  0.2574 -0.0399
 6809PP      PP16913   5.114   0.348  13.527  0.1191  0.1010  0.0670
 6810PP      PP16914   7.601  13.189  10.738  0.1309 -0.1898 -0.0147
 6811PP      PP16915  14.123   2.203   1.225  0.0073 -0.0893 -0.2392
 6812PP      PP16916  11.592   1.780  10.464 -0.3067  0.0534 -0.0353
 6813PP      PP16917  12.455   5.041   7.995 -0.0307 -0.2384 -0.0196
 6814PP      PP16918  13.660   1.043   0.616  0.1047  0.0344 -0.1469
 6815PP      PP16919  14.958  10.143   0.580 -0.1880  0.0855 -0.0577
 6816PP      PP16920   8.017  13.246   2.711  0.0895 -0.2502  0.2613
 6817PP      PP16921   2.176  14.974   0.916  0.1789  0.1059 -0.0637
 6818PP      PP16922   7.997   8.424  11.423 -0.2003  0.4124  0.2660
 6819PP      PP16923  12.814   6.405   2.591 -0.2391 -0.4438  0.2248
 6820PP      PP16924   9.984  12.829   0.787 -0.3279 -0.0102 -0.0506
 6821PP      PP16925  10.356  11.550   0.433  0.2752  0.0750  0.0102
 6822PP      PP16926  14.442   1.121   0.316  0.0127 -0.2428  0.2588
 6823PP      PP16927   2.508   0.372   2.928  0.1682  0.1891  0.0874
 6824PP      PP16928   7.064   2.710  12.410 -0.1861 -0.0533  0.1465
 6825PP      PP16929   6.757  11.685   9.623 -0.1333 -0.4399 -0.0031
 6826PP      PP16930  14.226  15.815  11.643  0.0256 -0.0570 -0.2823
 6827PP      PP16931   9.363   2.446  11.635  0.2706  0.1484  0.0916
 6828PP      PP16932  12.103   7.910   9.505  0.2121 -0.0416 -0.1570
 6829PP      PP16933   9.542   7.900  12.883  0.1463 -0.1294  0.1205
 6830PP      PP16934  15.694   0.188  13.390 -0.0101 -0.3159  0.2912
 6831PP      PP16935   5.620   1.905   9.486  0.2510 -0.0410 -0.1387
 6832PP      PP16936   1.331  13.020  13.296 -0.0569  0.1223  0.1984
 6833PP      PP16937  11.547  13.303  13.182 -0.1961 -0.2627  0.3647
 6834PP      PP16938   6.240  14.528   8.928 -0.1671  0.0827  0.1679
 6835PP      PP16939   5.469   1.333   9.911 -0.0320  0.0098  0.1032
 6836PP      PP16940   7.438  13.876  11.043 -0.1255 -0.1024 -0.0249
 6837PP      PP16941   6.597   0.385   5.241  0.0926 -0.3909  0.3555
 6838PP      PP16942  15.856   1.752   9.347  0.1693  0.1457 -0.1419
 6839PP      PP16943   5.072   2.547   0.239 -0.1072  0.1433 -0.0704
 6840PP      PP16944   4.009  10.203   0.598 -0.0754  0.3494 -0.0040
 6841PP      PP16945   1.669  15.451  11.637  0.3350  0.0408 -0.0792
 6842PP      PP16946   2.705   2.160  10.358 -0.1248  0.2948  0.0068
 6843PP      PP16947  10.740  14.560  10.583  0.0231 -0.1121 -0.1993
 6844PP      PP16948  15.562  13.142   3.912 -0.0528  0.1134 -0.0100
 6845PP      PP16949  15.677   8.470   1.479  0.3412  0.1808 -0.1216
 6846PP      PP16950   1.026  13.154   3.638  0.0025 -0.1584 -0.0758
 6847PP      PP16951  12.758   6.614   0.952 -0.1720 -0.0354 -0.2695
 6848PP      PP16952  15.283   8.427   9.065  0.3239  0.3420  0.1462
 6849PP      PP16953   5.442   9.971   2.830 -0.1538 -0.1311  0.2542
 6850PP      PP16954   7.466  11.122   4.627  0.0304  0.0033 -0.0168
 6851PP      PP16955   8.360   4.201   9.523  0.2469  0.3213 -0.3620
 6852PP      PP16956   5.825  11.507  11.834 -0.0794  0.3214  0.0252
 6853PP      PP16957  14.864  13.266  12.776  0.1361  0.2306 -0.1080
 6854PP      PP16958   7.618   6.827  12.850  0.2905  0.1628  0.2121
 6855PP      PP16959  15.740   3.957  11.648  0.1264  0.2004  0.0500
 6856PP      PP16960   4.503   4.482  11.959  0.1002 -0.0498  0.0477
 6857PP      PP16961   7.331   2.574   0.834  0.0528 -0.0512 -0.0000
 6858PP      PP16962   7.782   7.341  11.858  0.3266  0.1655 -0.4171
 6859PP      PP16963  10.998   5.649  12.859  0.0155  0.0452  0.6437
 6860PP      PP16964   8.699  12.041  10.633  0.0282  0.0122 -0.0420
 6861PP      PP16965   3.119  13.201   0.583  0.1046  0.2916  0.2483
 6862PP      PP16966  11.474   3.079   9.677 -0.1681  0.5312 -0.2700
 6863PP      PP16967   0.620   3.882  12.381  0.0306  0.2121 -0.0801
 6864PP      PP16968   5.212   8.944  12.284 -0.1743 -0.1751 -0.2310
 6865PP      PP16969   9.502  10.703  10.860  0.1812  0.0215  0.0354
 6866PP      PP16970   8.419  14.522   1.387  0.1403  0.1441  0.2523
 6867PP      PP16971   1.602   4.841   3.522  0.0337 -0.1593  0.1548
 6868PP      PP16972  14.950  15.805   2.939  0.4118  0.1831 -0.0093
 6869PP      PP16973   9.256  13.457   1.788  0.1299 -0.0061 -0.0765
 6870PP      PP16974  15.160   5.278  11.103  0.0462  0.3646  0.1514
 6871PP      PP16975  10.382  10.343  12.437  0.2939  0.0072  0.3003
 6872PP      PP16976   8.859   4.310  12.880 -0.0748 -0.3146 -0.0375
 6873PP      PP16977  12.003   7.525   9.187 -0.4750 -0.1454  0.0717
 6874PP      PP16978  10.025   7.940   2.306 -0.1007  0.2443 -0.2815
 6875PP      PP16979   8.725  13.675   3.544 -0.2139  0.0261  0.2374
 6876PP      PP16980   0.196   9.529  10.066  0.1125 -0.1032 -0.1098
 6877PP      PP16981   3.345   1.451   9.455 -0.2349 -0.0676 -0.3004
 6878PP      PP16982   4.391   8.241   0.140  0.2796  0.2433  0.1267
 6879PP      PP16983   3.445  14.381   0.659 -0.0243  0.1762  0.0656
 6880PP      PP16984   4.356  10.896   2.856  0.0440 -0.1483 -0.0164
 6881PP      PP16985  13.463   1.512  11.259 -0.3142  0.0036  0.1846
 6882PP      PP16986   3.482   8.980  10.390 -0.0366 -0.2908  0.2115
 6883PP      PP16987   8.627   6.786   2.003  0.1818  0.0603 -0.2313
 6884PP      PP16988   2.679   4.680   3.661  0.3556  0.2113  0.0306
 6885PP      PP16989   4.854  13.654  12.559 -0.0387  0.2576 -0.0845
 6886PP      PP16990   1.685  15.797   1.176 -0.0949  0.3044  0.2107
 6887PP      PP16991   3.139   7.603   9.754 -0.0380 -0.0483 -0.2460
 6888PP      PP16992   9.551   9.254  13.396  0.1755 -0.0652 -0.1129
 6889PP      PP16993  14.569   4.289   8.907  0.1273 -0.3932 -0.1625
 6890PP      PP16994   5.899  14.703   2.703 -0.3910 -0.1141  0.3085
 6891PP      PP16995   4.419  11.835  10.732 -0.1909  0.0578 -0.3912
 6892PP      PP16996  10.127  12.860   4.100  0.0304 -0.0309 -0.1669
 6893PP      PP16997   9.714  15.225  10.830  0.0188  0.2264 -0.4893
 6894PP      PP16998   7.429   5.073  12.222  0.2441 -0.1818 -0.0531
 6895PP      PP16999   1.343   3.321   2.257  0.2058  0.0579 -0.0906
 6896PP      PP17000  15.432   6.452  11.307 -0.0232  0.1632 -0.0909
 6897PP      PP17001   5.185   4.602   3.875 -0.2970  0.0554 -0.0749
 6898PP      PP17002   4.892   8.587   2.462  0.0444 -0.0085  0.2221
 6899PP      PP17003   2.053   7.688   4.112 -0.2367  0.0386 -0.0783
 6900PP      PP17004  10.881   6.490   8.873 -0.0117 -0.0802 -0.3750
 6901PP      PP17005  14.277   5.304   8.998 -0.0704 -0.1220  0.3340
 6902PP      PP17006  10.742  14.376   1.131 -0.1953  0.0570  0.0022
 6903PP      PP17007   2.358   0.834  11.093  0.0140 -0.2006 -0.0872
 6904PP      PP17008  14.242   4.705  11.264 -0.1326 -0.4405 -0.2559
 6905PP      PP17009   9.301   9.017   8.456  0.0216 -0.1927  0.0080
 6906PP      PP17010   3.410  12.419   9.152  0.0087  0.2584  0.0073
 6907PP      PP17011   4.441  10.492  12.954  0.4122  0.1187 -0.1178
 6908PP      PP17012  11.550   4.418   8.772  0.1608  0.0887 -0.2058
 6909PP      PP17013   6.796   5.656   1.724  0.1575 -0.3203 -0.2006
 6910PP      PP17014   6.471   1.854   2.034  0.0904 -0.0153  0.1392
 6911PP      PP17015  11.236   9.349  11.770 -0.0820  0.0184  0.0748
 6912PP      PP17016  13.235   9.919   3.064 -0.0887 -0.1583  0.0349
 6913PP      PP17017   7.936  15.368   0.432 -0.1316 -0.1925 -0.0405
 6914PP      PP17018   8.183   8.358   0.348 -0.1127 -0.0511  0.1572
 6915PP      PP17019   1.817  10.897   9.663  0.1036 -0.1325  0.0283
 6916PP      PP17020   2.850   8.048   2.668 -0.1750  0.1037  0.1107
 6917PP      PP17021   7.451   2.070   3.001  0.4224  0.3199 -0.0434
 6918PP      PP17022   8.920   9.329   2.143  0.0893  0.0637  0.1590
 6919PP      PP17023   4.300  14.741   1.452 -0.0160  0.2220  0.0508
 6920PP      PP17024   4.653   2.318  13.078  0.2048 -0.1468 -0.0739
 6921PP      PP17025   4.330  15.819  12.031 -0.2222  0.0906  0.0089
 6922PP      PP17026   2.432   8.455   9.119  0.0130  0.0247 -0.1910
 6923PP      PP17027  11.351   2.087   0.515  0.2404 -0.2049  0.2513
 6924PP      PP17028   8.903  10.918   2.347 -0.1306  0.1286 -0.0214
 6925PP      PP17029  13.846   0.610   4.064 -0.0097  0.0211 -0.0634
 6926PP      PP17030   0.049  11.116   0.052  0.1263  0.1229  0.0278
 6927PP      PP17031   2.357   3.660   4.830  0.0633 -0.0833  0.0044
 6928PP      PP17032   6.381   5.408   1.937  0.0293 -0.1380  0.2124
 6929PP      PP17033   9.953   0.419  10.689 -0.0842 -0.4188  0.0387
 6930PP      PP17034  13.501  10.412  12.845  0.2210 -0.3187 -0.1884
 6931PP      PP17035  11.991  15.264   4.210 -0.0033  0.1688 -0.0345
 6932PP      PP17036  10.431   2.430  11.596  0.0691  0.0130 -0.0766
 6933PP      PP17037   0.391   2.405   2.900  0.0574 -0.0997 -0.1287
 6934PP      PP17038   4.936   8.387  13.190  0.1556  0.2260 -0.1740
 6935PP      PP17039   7.028   3.568   0.273  0.0857  0.1019 -0.0270
 6936PP      PP17040   5.858   8.444  11.081  0.1394 -0.0694  0.2757
 6937PP      PP17041  11.468   7.510   2.904 -0.1419  0.1913 -0.1721
 6938PP      PP17042   8.495   5.061   8.745  0.1307 -0.4289 -0.1652
 6939PP      PP17043   9.278  14.502   3.357 -0.1094  0.1838 -0.2431
 6940PP      PP17044  13.829   1.030  11.149 -0.0847  0.2121 -0.0559
 6941PP      PP17045  11.055   6.534   8.389  0.4880 -0.4159 -0.0237
 6942PP      PP17046   8.409   6.524   9.420  0.0409 -0.1423  0.0074
 6943PP      PP17047   4.643   5.398   0.804  0.0153  0.0275  0.3663
 6944PP      PP17048  14.537   0.234   0.279  0.2269 -0.0580  0.1433
 6945PP      PP17049  13.022   0.099  10.417  0.0715  0.3545 -0.4628
 6946PP      PP17050   8.028  13.034   8.377 -0.0415 -0.3484  0.0011
 6947PP      PP17051   7.736   6.202   0.355  0.1229 -0.0508 -0.3260
 6948PP      PP17052  13.631   7.323   3.641  0.0472 -0.0456  0.1175
 6949PP      PP17053   1.209   9.228  10.308 -0.0016 -0.1813 -0.1385
 6950PP      PP17054   0.903   4.299   8.743  0.3621 -0.0041  0.1438
 6951PP      PP17055  14.618   4.803   0.195  0.0738 -0.1656 -0.0793
 6952PP      PP17056   9.741  11.384  10.335  0.3209 -0.1508 -0.2909
 6953PP      PP17057  11.462   4.588  13.501 -0.0801  0.0623  0.2671
 6954PP      PP17058   5.906  15.383   1.122  0.2080  0.0865 -0.0422
 6955PP      PP17059   5.415  15.664   2.714 -0.1454  0.3657 -0.0134
 6956PP      PP17060   1.378  13.584   1.177 -0.1542 -0.0055  0.0880
 6957PP      PP17061  11.110   8.032  10.438 -0.3234 -0.1297 -0.3386
 6958PP      PP17062   3.637  13.372   0.378 -0.0386 -0.0297  0.0028
 6959PP      PP17063   5.135   4.948   2.196 -0.0772  0.1134  0.2282
 6960PP      PP17064   3.039   3.495  11.588  0.0986  0.1268  0.0707
 6961PP      PP17065   9.222   9.262  11.201 -0.0488 -0.2124  0.0576
 6962PP      PP17066   3.884   4.619   4.654  0.1821  0.4021  0.0291
 6963PP      PP17067   9.273   8.844  11.591  0.1707  0.0685 -0.1229
 6964PP      PP17068  15.069  14.703   1.548  0.0634 -0.2169 -0.0957
 6965PP      PP17069  13.150   6.662  11.152  0.0576  0.2135  0.0005
 6966PP      PP17070   4.486  11.226   0.050  0.0168  0.1282  0.1013
 6967PP      PP17071   2.810  10.953  12.635 -0.0499  0.5159 -0.1849
 6968PP      PP17072  10.254   3.954   2.537  0.1176 -0.1378 -0.0801
 6969PP      PP17073   4.909   9.820  10.516 -0.2440 -0.0336 -0.3494
 6970PP      PP17074   6.095  15.372  12.798 -0.5276  0.1063 -0.0342
 6971PP      PP17075   7.670   6.865  11.920 -0.1484  0.1164 -0.0003
 6972PP      PP17076  12.243  13.514   2.288 -0.0130 -0.2226  0.0808
 6973PP      PP17077  15.577   5.580   0.111  0.0146  0.2367  0.1640
 6974PP      PP17078   6.413  12.462   2.309  0.3064  0.0032  0.0551
 6975PP      PP17079   8.754   2.530  10.322  0.2485 -0.0196 -0.0734
 6976PP      PP17080  13.618   5.451  12.061  0.2166 -0.1603  0.0465
 6977PP      PP17081   0.866   5.814   3.730  0.3292  0.1039  0.0092
 6978PP      PP17082   0.088   0.032   2.225  0.1615  0.0533  0.0364
 6979PP      PP17083  11.886   3.203   4.363 -0.1370  0.1152 -0.2051
 6980PP      PP17084  10.292  13.664  11.809  0.0332  0.2633  0.0537
 6981PP      PP17085   0.914  10.593  11.024 -0.0666  0.0439  0.1611
 6982PP      PP17086  13.140   5.399   8.355  0.0046 -0.0888  0.0116
 6983PP      PP17087   1.857   3.702   0.066  0.0392 -0.1171 -0.0924
 6984PP      PP17088  13.389   9.855  10.331 -0.0603  0.0624 -0.3378
 6985PP      PP17089   7.711   5.566   1.049 -0.1032 -0.1176 -0.2241
 6986PP      PP17090   8.642   2.343  10.849 -0.1471 -0.0147  0.0943
 6987PP      PP17091  15.627   2.023   0.738 -0.0855  0.2731  0.1467
 6988PP      PP17092  14.642   2.440  10.666  0.0466 -0.0992 -0.2477
 6989PP      PP17093  12.009   6.600   3.239  0.1041 -0.0975 -0.0191
 6990PP      PP17094   1.384   9.966   8.929 -0.1681  0.1945  0.2004
 6991PP      PP17095   9.251   5.002   3.080 -0.1794 -0.1885 -0.1329
 6992PP      PP17096   6.649   3.664  10.951  0.0469 -0.4739  0.0628
 6993PP      PP17097   3.886  13.338   4.009  0.1682  0.1288  0.0023
 6994PP      PP17098   3.815   1.370   4.054  0.4568  0.0197  0.1692
 6995PP      PP17099   7.012  10.102   9.973 -0.0449 -0.0903  0.2263
 6996PP      PP17100  12.352   9.070  11.321  0.0460 -0.0972 -0.4633
 6997PP      PP17101   1.173   2.994   8.994 -0.3563 -0.0500  0.2630
 6998PP      PP17102  11.528   7.608   1.663 -0.0642 -0.0228 -0.0674
 6999PP      PP17103  14.171  10.137   2.507  0.0199  0.1929 -0.3081
 7000PP      PP17104   2.978   7.795  10.581  0.0412  0.1600  0.0760
 7001PP      PP17105   4.775   7.349  12.513 -0.4093  0.3094  0.0875
 7002PP      PP17106  12.983  13.967  11.069  0.0287  0.4112 -0.1946
 7003PP      PP17107   9.909   8.135   8.325 -0.0959 -0.0693 -0.1363
 7004PP      PP17108   0.728  14.953   4.296 -0.2434 -0.0398 -0.3666
 7005PP      PP17109  13.003   7.583   7.686 -0.1223  0.1169 -0.1758
 7006PP      PP17110  13.864   4.390   1.078  0.0915 -0.0264  0.0212
 7007PP      PP17111  14.370   3.151   3.340 -0.0549  0.0299 -0.1863
 7008PP      PP17112   3.925   0.258  13.247  0.0458 -0.0025 -0.1697
 7009PP      PP17113  12.902   7.624   9.756 -0.1160  0.1917  0.0010
 7010PP      PP17114   2.265  13.410   1.516 -0.2617  0.2300  0.1349
 7011PP      PP17115   5.406   1.125   3.854 -0.4359  0.0619 -0.0896
 7012PP      PP17116   9.971  12.990   3.505 -0.1054  0.2445  0.2055
 7013PP      PP17117   3.869   8.431   4.018 -0.4471 -0.2144  0.1312
 7014PP      PP17118  11.951   2.723   3.472  0.2723 -0.1465 -0.1346
 7015PP      PP17119  12.666   0.352   1.865 -0.1161  0.3271  0.0942
 7016PP      PP17120   9.907   9.887  10.812 -0.3624 -0.0377  0.1547
 7017PP      PP17121   0.520   6.220   3.824 -0.0295 -0.0386  0.4988
 7018PP      PP17122   4.388   7.937   9.307  0.1897 -0.1780 -0.0980
 7019PP      PP17123   5.430  10.058   1.487 -0.0408  0.2611 -0.2878
 7020PP      PP17124   7.322   2.350  13.067  0.3428 -0.2638  0.2286
 7021PP      PP17125   8.463  12.793  12.179 -0.1345 -0.0994 -0.0278
 7022PP      PP17126   1.753  15.782  10.414 -0.2023  0.0640 -0.0594
 7023PP      PP17127  15.654  14.629   0.632  0.0203 -0.2918  0.3466
 7024PP      PP17128   8.874   6.530  12.708  0.2756 -0.2759  0.0315
 7025PP      PP17129   5.195   1.245  10.570 -0.0077 -0.3096 -0.0523
 7026PP      PP17130   3.513  12.390   0.795 -0.2143 -0.2558 -0.1055
 7027PP      PP17131  15.521   7.151   9.322 -0.3077 -0.0805 -0.3064
 7028PP      PP17132   5.586   9.306  12.441 -0.0427 -0.2119  0.1080
 7029PP      PP17133   7.894  10.491   3.485 -0.1091  0.0316 -0.0731
 7030PP      PP17134  10.430   3.206   4.795  0.0327 -0.3604  0.2901
 7031PP      PP17135   8.624   5.647   2.799  0.2913  0.0064 -0.1665
 7032PP      PP17136   3.111   6.008   0.879  0.0500  0.0190  0.2000
 7033PP      PP17137   1.320   5.967   3.902 -0.0086  0.2266  0.0331
 7034PP      PP17138   4.951  14.078   3.085  0.1541 -0.0135  0.2097
 7035PP      PP17139   1.259  11.183   0.638  0.0650  0.3575 -0.0072
 7036PP      PP17140  13.133   0.161  12.557  0.2220 -0.3907  0.2378
 7037PP      PP17141   1.226  10.048   1.906  0.0973 -0.1673  0.1905
 7038PP      PP17142   0.787   1.678   1.295 -0.2575 -0.1620 -0.0262
 7039PP      PP17143  10.425   6.148  11.776 -0.2075 -0.0715 -0.2766
 7040PP      PP17144   3.863   2.660   2.735  0.1818 -0.0924  0.0411
 7041PP      PP17145   8.277   8.001  10.681  0.0547 -0.0086 -0.3891
 7042PP      PP17146   2.223   9.230   1.459  0.0802 -0.2958  0.0791
 7043PP      PP17147   1.142   6.083   1.355  0.1962  0.4583  0.2382
 7044PP      PP17148   8.221   2.345   1.003  0.0262 -0.0552 -0.3140
 7045PP      PP17149   3.123   2.108  12.292  0.2193  0.1185 -0.3847
 7046PP      PP17150   6.931   5.461  10.771  0.2272 -0.3294  0.1915
 7047PP      PP17151   7.063   4.352  10.955  0.1737  0.1209 -0.0484
 7048PP      PP17152   3.194  14.204  12.755 -0.0609  0.0450  0.2226
 7049PP      PP17153   4.223   2.943   9.574  0.1203 -0.0048 -0.3980
 7050PP      PP17154   4.414   6.577   9.465 -0.1264  0.1847  0.2366
 7051PP      PP17155   8.096  14.273   1.075  0.1661  0.2811  0.2718
 7052PP      PP17156   1.146  13.765  13.456 -0.0504  0.0512  0.1190
 7053PP      PP17157   8.677   6.236   3.597 -0.1224 -0.1952  0.0936
 7054PP      PP17158  12.424   2.002   4.756  0.2784 -0.0364  0.0051
 7055PP      PP17159   6.209   5.154   0.257  0.2092  0.1189  0.1833
 7056PP      PP17160   0.029   6.375   9.502 -0.2002 -0.3560  0.0501
 7057PP      PP17161   4.481   9.581   2.731 -0.0584  0.1688 -0.1171
 7058PP      PP17162   6.883   3.359   0.658 -0.0140 -0.0830  0.0017
 7059PP      PP17163  13.264  14.769  11.472  0.1904  0.0167 -0.2850
 7060PP      PP17164   8.094   0.066  11.788  0.0716 -0.2259  0.0726
 7061PP      PP17165   6.877   7.641  10.875 -0.2656 -0.0637 -0.3627
 7062PP      PP17166   5.835   1.913   3.361  0.2199 -0.0395  0.1965
 7063PP      PP17167   7.295  14.030  12.225  0.0505 -0.1479 -0.0709
 7064PP      PP17168   1.393   9.022   9.368  0.0451 -0.1934  0.0183
 7065PP      PP17169   0.894   7.210  11.039  0.1615 -0.1950 -0.1102
 7066PP      PP17170   6.270   5.977   9.349  0.1603  0.2043  0.0781
 7067PP      PP17171   1.483  15.218  10.653 -0.0596 -0.1909 -0.2204
 7068PP      PP17172   0.161  15.854   0.119  0.1366  0.4018  0.0066
 7069PP      PP17173   9.532   3.291   1.406 -0.0741  0.1579  0.2993
 7070PP      PP17174  12.370  15.097  12.720 -0.0201  0.0668 -0.2761
 7071PP      PP17175  14.220   9.133   2.241 -0.0107  0.0743 -0.0952
 7072PP      PP17176  14.936   0.326   2.575  0.0909  0.3595  0.4376
 7073PP      PP17177  10.724   5.856   2.084  0.0108  0.0930 -0.4507
 7074PP      PP17178  15.610  11.817   9.049 -0.1476 -0.2265  0.0616
 7075PP      PP17179  14.432   3.602   2.902 -0.2640  0.1655  0.1162
 7076PP      PP17180  14.711   6.228  11.528  0.1318  0.0087 -0.1816
 7077PP      PP17181   7.466   8.147  12.438 -0.0944  0.3469 -0.1473
 7078PP      PP17182   9.505  15.805   1.813 -0.3407 -0.2419  0.3106
 7079PP      PP17183   7.993  13.007   3.724 -0.2191  0.0300  0.0058
 7080PP      PP17184  11.987   6.169   7.337 -0.0106  0.0978  0.1155
 7081PP      PP17185  14.529   5.911   1.824 -0.0412  0.1698  0.1284
 7082PP      PP17186   8.352   1.899   2.240  0.1437 -0.3649 -0.1320
 7083PP      PP17187   5.788   6.868   8.978  0.3323  0.1489 -0.1113
 7084PP      PP17188  10.413   4.396  10.035 -0.1825 -0.0363 -0.1675
 7085PP      PP17189   0.566  15.071  13.383 -0.0558 -0.2449 -0.3067
 7086PP      PP17190   9.900   7.350   3.991  0.2606  0.1476  0.1521
 7087PP      PP17191   4.838   2.255  11.034  0.1801 -0.3326 -0.2362
 7088PP      PP17192  14.956   1.148   0.330  0.0305 -0.0101  0.0761
 7089PP      PP17193   4.197  10.118   4.452 -0.1331  0.1746 -0.0537
 7090PP      PP17194   2.658   6.934   0.519  0.1315  0.1059 -0.0981
 7091PP      PP17195   1.327  12.757   1.050  0.3761  0.2353  0.0692
 7092PP      PP17196  11.866  13.389   9.132 -0.3161 -0.1996  0.1634
 7093PP      PP17197  13.268   4.750   9.749 -0.1683 -0.3008 -0.0159
 7094PP      PP17198   8.072   7.140  12.740 -0.3334 -0.0314 -0.1093
 7095PP      PP17199  11.583   4.380   0.425  0.0187  0.0805 -0.0536
 7096PP      PP17200  14.347   6.345   2.798  0.0925 -0.0567 -0.2242
 7097PP      PP17201  10.245  10.951   1.990 -0.1418 -0.2155  0.0441
 7098PP      PP17202   4.426   7.964  13.235  0.1218 -0.1350 -0.0858
 7099PP      PP17203   7.119  12.088   9.209 -0.0105 -0.1518 -0.2237
 7100PP      PP17204  13.091   4.042  11.647  0.1248 -0.0694  0.1215
 7101PP      PP17205   9.684   8.312   2.343 -0.1720 -0.0760 -0.2862
 7102PP      PP17206  12.962  11.614   1.254 -0.2340  0.1931 -0.2167
 7103PP      PP17207  10.689   6.634   2.667  0.0539  0.1437 -0.2237
 7104PP      PP17208  10.354   7.054   1.371 -0.1135 -0.5927 -0.0068
 7105PP      PP17209   4.582   2.826   2.395  0.0452  0.0966  0.1717
 7106PP      PP17210   7.307   3.760  12.326  0.1898 -0.1527 -0.0709
 7107PP      PP17211   1.704  11.720  11.245 -0.1454  0.0765  0.1983
 7108PP      PP17212   6.173  12.573   3.972  0.0574  0.0596 -0.3208
 7109PP      PP17213   6.877  10.328   9.048 -0.1118  0.3313 -0.1225
 7110PP      PP17214   1.038   7.291   3.217  0.2451 -0.2449  0.2866
 7111PP      PP17215   6.289   0.679   2.340  0.0862  0.0961 -0.1182
 7112PP      PP17216   2.078  12.052   9.571 -0.0627 -0.1521 -0.0744
 7113PP      PP17217  13.214   6.702  12.221 -0.0450  0.0680 -0.0335
 7114PP      PP17218   3.675   4.551   9.173 -0.0638 -0.1483  0.0417
 7115PP      PP17219   6.839   6.663   1.981 -0.0002 -0.0553  0.0622
 7116PP      PP17220  13.276   4.222  10.357  0.0733  0.2797 -0.1113
 7117PP      PP17221   7.030  13.763   0.774  0.3464  0.0143 -0.0269
 7118PP      PP17222   7.780  14.265   4.729  0.3338  0.3661  0.1292
 7119PP      PP17223   6.402   9.382  13.066  0.1343 -0.3252 -0.1203
 7120PP      PP17224  12.746  11.989   9.768 -0.1113 -0.1243 -0.0798
 7121PP      PP17225   0.707   8.633  10.353  0.0197  0.1881 -0.2499
 7122PP      PP17226   3.568  13.635   2.653 -0.1363  0.1016  0.2752
 7123PP      PP17227  15.806   7.187  12.934 -0.1622 -0.3364 -0.0009
 7124PP      PP17228   6.418  14.129  12.323  0.1501 -0.1176  0.1557
 7125PP      PP17229  11.990   5.639   0.360  0.0719 -0.1353  0.0430
 7126PP      PP17230   2.956  14.759   2.040  0.4364 -0.0165 -0.1191
 7127PP      PP17231   6.433   9.491   4.463  0.0085 -0.0607 -0.0501
 7128PP      PP17232   5.186  10.549  12.526 -0.1416  0.1416 -0.2193
 7129PP      PP17233  11.428   3.562   9.969  0.0878 -0.1745  0.1466
 7130PP      PP17234  15.810  14.710  11.224 -0.0946 -0.0828  0.0875
 7131PP      PP17235  12.623   0.089   1.390  0.1230  0.1897  0.3051
 7132PP      PP17236   8.760  13.120   9.789 -0.1681  0.1040 -0.2305
 7133PP      PP17237  15.465   2.563  13.540  0.0656  0.2495  0.0339
 7134PP      PP17238   7.754   2.092   2.200 -0.1023 -0.1527 -0.0866
 7135PP      PP17239  11.923   7.738   2.408 -0.0625 -0.1944 -0.1070
 7136PP      PP17240  12.013  11.529  10.049  0.1138 -0.2062 -0.1186
 7137PP      PP17241   3.608   0.401   3.641 -0.2151  0.0955 -0.0926
 7138PP      PP17242   7.803  13.662   3.894 -0.1677 -0.1934 -0.0598
 7139PP      PP17243  13.135   7.945  11.388  0.1232  0.1665 -0.2731
 7140PP      PP17244   2.888  12.935  10.105  0.0454 -0.2525 -0.2656
 7141PP      PP17245   4.118   2.914  12.277 -0.0365  0.0368  0.2416
 7142PP      PP17246  14.918   2.515  10.026  0.2060  0.0565  0.0746
 7143PP      PP17247   6.736  11.238   8.996 -0.1476 -0.0756 -0.4582
 7144PP      PP17248   6.985   6.153   9.966  0.1007 -0.1213  0.1078
 7145PP      PP17249  13.210   3.602  10.566  0.1205  0.2408  0.1738
 7146PP      PP17250   8.557  15.420   2.434  0.1618  0.0421 -0.2672
 7147PP      PP17251   8.113   1.565   1.756 -0.0118  0.3231  0.3704
 7148PP      PP17252   4.240   5.335   8.639  0.0123  0.2097 -0.1921
 7149PP      PP17253  10.666   6.915   8.166 -0.2876  0.1875  0.2778
 7150PP      PP17254   8.118  14.670   0.005  0.1586  0.0739 -0.0739
 7151PP      PP17255   3.165   1.116  13.483 -0.0802  0.0131  0.0397
 7152PP      PP17256   8.061  10.766  10.760 -0.0155  0.0878  0.1185
 7153PP      PP17257   6.308  15.411   0.160  0.0561  0.2902 -0.0965
 7154PP      PP17258  10.911   9.402  13.506  0.2261  0.0205  0.0642
 7155PP      PP17259   3.941   0.835  12.961 -0.1595  0.0569  0.0895
 7156PP      PP17260  13.935   1.771  12.221  0.1170  0.2738  0.1620
 7157PP      PP17261   8.643   0.903   3.276 -0.1437  0.1491  0.1598
 7158PP      PP17262   3.913  11.914   3.834 -0.1029  0.1811  0.2263
 7159PP      PP17263  13.879  15.198  13.388  0.3159 -0.0986 -0.0525
 7160PP      PP17264   3.353  14.494   2.139  0.0376  0.1473  0.1115
 7161PP      PP17265  15.437  13.678   0.770 -0.0472  0.1529  0.2763
 7162PP      PP17266   4.155   6.682   0.602 -0.1156 -0.0732 -0.0175
 7163PP      PP17267   5.123  14.841   4.144  0.1352 -0.1206 -0.0564
 7164PP      PP17268   0.651   8.965  12.009 -0.0177  0.0779  0.1509
 7165PP      PP17269   8.731   1.266   2.348 -0.0060  0.1875  0.2680
 7166PP      PP17270   8.904   7.470  10.270 -0.1342 -0.1678  0.1786
 7167PP      PP17271   6.932   9.859  11.015  0.2748  0.2383  0.0374
 7168PP      PP17272   0.056  14.087   0.594 -0.2405 -0.1732  0.3566
 7169PP      PP17273   4.930   5.876   9.120  0.1853 -0.1274  0.2022
 7170PP      PP17274   3.504  12.438  10.296  0.0742 -0.1333 -0.2291
 7171PP      PP17275  10.137   5.328  10.151  0.2854  0.0991 -0.2548
 7172PP      PP17276   3.055  11.848  13.055  0.0127  0.0635  0.3955
 7173PP      PP17277  11.051   8.127  11.568 -0.0417  0.1011  0.2343
 7174PP      PP17278   2.723   0.727  13.513 -0.1478  0.1947  0.4948
 7175PP      PP17279   6.692   6.153   2.153  0.0444  0.2540 -0.1726
 7176PP      PP17280   8.245   6.673  11.224 -0.0124 -0.2159  0.0636
 7177PP      PP17281  14.754  11.041   9.942  0.0036 -0.1407 -0.0157
 7178PP      PP17282   5.701   9.836   9.979 -0.2065  0.1132  0.1639
 7179PP      PP17283  11.728   2.218   4.155 -0.1160  0.0716 -0.0253
 7180PP      PP17284   5.806   4.544   3.127 -0.0504 -0.1642  0.1889
 7181PP      PP17285   2.770   8.753  12.167 -0.0778  0.0069 -0.0661
 7182PP      PP17286  13.128  13.584  10.179  0.0636  0.0741  0.2142
 7183PP      PP17287  10.878  14.011  12.511 -0.1488 -0.1024  0.1290
 7184PP      PP17288  10.245  10.119  10.110 -0.0893 -0.0673 -0.0398
 7185PP      PP17289  12.879  10.319   2.940 -0.2097 -0.1145  0.5148
 7186PP      PP17290  10.302   8.101   2.720  0.0816 -0.0081  0.2858
 7187PP      PP17291   0.065   4.799   2.961  0.5440 -0.0246 -0.3334
 7188PP      PP17292  15.008  11.282   1.278 -0.0846  0.0831 -0.0847
 7189PP      PP17293  11.199   3.001   4.235  0.0169  0.2829  0.0550
 7190PP      PP17294   4.523   6.370   4.314  0.0910 -0.1045  0.2132
 7191PP      PP17295   2.182   7.117   9.406 -0.1446  0.0966 -0.0837
 7192PP      PP17296  11.047  12.593   4.383 -0.1974  0.1745 -0.0278
 7193PP      PP17297   3.039  11.255  12.321  0.3378  0.1766  0.1147
 7194PP      PP17298   8.892  10.477  11.554 -0.0468  0.1664 -0.3389
 7195PP      PP17299  13.348   5.293   0.590  0.2908  0.0905  0.1476
 7196PP      PP17300   4.499   6.104   0.187 -0.0196 -0.0159 -0.1587
 7197PP      PP17301   4.391  12.225   0.665 -0.2009 -0.2834 -0.1593
 7198PP      PP17302  13.240  10.093   2.589  0.1558 -0.0469 -0.3054
 7199PP      PP17303   4.079   9.001   1.565  0.3332  0.1479 -0.3822
 7200PP      PP17304   3.115   4.311  11.419  0.1713 -0.1813  0.0934
 7201PP      PP17305  14.066   8.186  11.651  0.0892 -0.2465 -0.0698
 7202PP      PP17306   3.945  12.580   1.562  0.1573  0.0248 -0.0887
 7203PP      PP17307  11.858   0.910   3.368  0.1813 -0.0465 -0.1269
 7204PP      PP17308   5.276   9.326   3.401  0.1966  0.0996  0.0055
 7205PP      PP17309   2.708   2.305   3.539 -0.0581  0.2249 -0.0485
 7206PP      PP17310  11.807   9.087   2.889 -0.1595 -0.1773 -0.2531
 7207PP      PP17311   2.286  11.137  10.459 -0.1159 -0.0336  0.1456
 7208PP      PP17312   4.943   6.692   3.711  0.0285 -0.1871 -0.3965
 7209PP      PP17313   4.655  10.074  10.082  0.0577  0.1202 -0.1500
 7210PP      PP17314  13.654   3.612  13.091 -0.1809  0.0894  0.1746
 7211PP      PP17315  11.971  15.233   3.099  0.0109  0.1053  0.1379
 7212PP      PP17316  12.051   3.892   3.851 -0.1570  0.3092 -0.3483
 7213PP      PP17317   6.578   3.542  13.539 -0.2799 -0.0688 -0.2500
 7214PP      PP17318   9.006   5.932   2.514 -0.0864 -0.0149  0.1479
 7215PP      PP17319   8.342  11.141  10.836  0.1065  0.1120  0.0667
 7216PP      PP17320   7.061   8.436  10.144  0.1833  0.0448 -0.0329
 7217PP      PP17321   9.676  13.449   2.152 -0.0491  0.1743  0.0620
 7218PP      PP17322   0.537  12.253  12.430 -0.0518  0.1502 -0.2135
 7219PP      PP17323   5.749  11.980   1.126  0.1126  0.1163 -0.0844
 7220PP      PP17324   3.719   2.960   1.874 -0.0099 -0.0038 -0.3220
 7221PP      PP17325   1.991   1.340  12.654 -0.4477  0.0099  0.1095
 7222PP      PP17326   0.360   1.867   0.835  0.4763  0.1623  0.0655
 7223PP      PP17327   2.020   8.718  13.245  0.0505 -0.0919  0.0420
 7224PP      PP17328   2.504   9.206   3.591 -0.0619  0.0063  0.3035
 7225PP      PP17329   7.384   8.984   4.086 -0.2433 -0.3201 -0.2995
 7226PP      PP17330  12.433  13.365   9.169 -0.0837 -0.1912 -0.2054
 7227PP      PP17331   7.008  11.733   3.441 -0.1053  0.2209  0.1104
 7228PP      PP17332  12.873  11.386   0.032 -0.1025 -0.0168 -0.0912
 7229PP      PP17333  11.832   9.290  13.049  0.3605  0.1339 -0.3282
 7230PP      PP17334   5.833   5.473  13.440 -0.1476 -0.0008 -0.0901
 7231PP      PP17335   6.494   7.155   1.493 -0.0330 -0.0526 -0.2410
 7232PP      PP17336   4.698  13.888   3.534  0.2211 -0.4385  0.2614
 7233PP      PP17337  11.408  12.265   4.408 -0.0500  0.0339  0.2326
 7234PP      PP17338   2.907  12.130   9.862 -0.0513  0.1958  0.1737
 7235PP      PP17339   8.128   2.611   3.800  0.3244  0.0871  0.4031
 7236PP      PP17340  12.831   5.832  10.356 -0.1093 -0.1517  0.3741
 7237PP      PP17341  12.271   0.173   9.499 -0.0924 -0.3321 -0.0983
 7238PP      PP17342  14.606   7.222   2.329  0.0071 -0.0450 -0.0983
 7239PP      PP17343   1.972   3.974   3.984  0.2250  0.4254  0.1209
 7240PP      PP17344  10.175   1.012   9.920  0.2531 -0.0668  0.0455
 7241PP      PP17345   4.233  13.520  11.620  0.1819 -0.1966 -0.1456
 7242PP      PP17346   4.912   5.744  13.262  0.3554  0.1178 -0.0516
 7243PP      PP17347  12.896   5.014   8.246 -0.0153 -0.0692  0.1938
 7244PP      PP17348   0.184  11.683   1.979  0.5285 -0.0007  0.1366
 7245PP      PP17349   2.077   3.612   1.894  0.1350  0.2955 -0.1203
 7246PP      PP17350   9.723   1.240  11.178  0.1581 -0.0852 -0.1815
 7247PP      PP17351   9.136   5.031   3.594  0.0267  0.2674  0.1050
 7248PP      PP17352  13.198   1.035   1.547  0.2944  0.0224 -0.4441
 7249PP      PP17353   2.897   7.543   8.611 -0.2380  0.1635 -0.2768
 7250PP      PP17354   5.049   1.945  11.424  0.2513  0.1961  0.1308
 7251PP      PP17355  15.109   4.879   0.905 -0.2102  0.0076 -0.1794
 7252PP      PP17356  13.503   2.645   8.660  0.0220  0.0491 -0.0501
 7253PP      PP17357   1.218   0.877   2.375  0.1047  0.0665  0.1548
 7254PP      PP17358  12.258   5.651   8.797 -0.1274  0.1569  0.2764
 7255PP      PP17359   6.908   7.094   0.591  0.0512 -0.1659 -0.0134
 7256PP      PP17360   6.862   2.041   2.275 -0.4099 -0.1376  0.0718
 7257PP      PP17361   4.320   0.467  13.021 -0.2629  0.4308 -0.1173
 7258PP      PP17362   7.156  12.081   0.013  0.2242  0.0767  0.2908
 7259PP      PP17363   6.424   5.019   9.634  0.1371 -0.0922 -0.1969
 7260PP      PP17364   8.533   2.962   8.595 -0.2447  0.0500  0.2445
 7261PP      PP17365  13.534  11.899  11.014  0.1089 -0.1813 -0.0292
 7262PP      PP17366   8.226  12.104   4.008 -0.1895  0.0049  0.3687
 7263PP      PP17367   6.301   2.456  12.229  0.0839 -0.1076  0.1415
 7264PP      PP17368   7.697   9.002   9.110 -0.0385 -0.1163 -0.0741
 7265PP      PP17369  12.041  10.303   3.939 -0.2220 -0.4021 -0.0583
 7266PP      PP17370  13.469   2.310   1.697 -0.0790 -0.1169 -0.2271
 7267PP      PP17371   5.049   8.402  11.572  0.2989  0.4242 -0.0171
 7268PP      PP17372  10.054  14.642   0.589  0.1317  0.0183 -0.1623
 7269PP      PP17373  10.440  10.543   0.363  0.2673  0.0698 -0.1947
 7270PP      PP17374   3.541   6.386   8.795 -0.1240  0.0555  0.0225
 7271PP      PP17375  15.862   6.234   1.731  0.0442  0.2081  0.2270
 7272PP      PP17376   2.775   9.345  12.222  0.2491  0.1692  0.0499
 7273PP      PP17377   1.723   3.952   1.036 -0.0269  0.1743  0.0730
 7274PP      PP17378   9.957   1.938  11.856  0.3827  0.3371  0.1219
 7275PP      PP17379  11.867  11.405   0.849  0.1100 -0.2722 -0.1082
 7276PP      PP17380   1.246   5.543   9.166 -0.0470  0.2897 -0.0471
 7277PP      PP17381  12.296  13.874   8.775  0.1283  0.3796  0.0089
 7278PP      PP17382  13.659  11.855   1.761  0.2702  0.1687 -0.1026
 7279PP      PP17383   4.690  15.242   0.862 -0.1026  0.0998  0.0535
 7280PP      PP17384  11.965  12.186   3.996  0.4148  0.1870  0.0213
 7281PP      PP17385   2.660  14.729   0.662 -0.0300  0.3096 -0.2127
 7282PP      PP17386  15.564   1.152  11.116 -0.2149  0.1994  0.0736
 7283PP      PP17387   1.711   5.330   4.190 -0.0304 -0.0682 -0.0418
 7284PP      PP17388   4.575  13.994  12.825 -0.1268 -0.1361  0.1801
 7285PP      PP17389  15.560  13.149  10.413  0.2721  0.1521 -0.0649
 7286PP      PP17390  10.085   5.905  10.162  0.0438  0.2784  0.1192
 7287PP      PP17391  12.963   3.520   0.109  0.1507  0.0345 -0.1051
 7288PP      PP17392   3.181  10.490  10.919 -0.0438 -0.0607  0.3125
 7289PP      PP17393   3.876   9.345   1.025 -0.0840  0.0981  0.0645
 7290PP      PP17394   8.302   7.551  13.291 -0.2754  0.4193  0.1920
 7291PP      PP17395   8.321  13.285   5.113  0.0382  0.1276 -0.0527
 7292PP      PP17396   4.330   5.835   4.296 -0.0937  0.3994 -0.3237
 7293PP      PP17397  14.734   7.037   9.639 -0.1117  0.1474 -0.0969
 7294PP      PP17398   7.832   6.418  10.446 -0.0602 -0.1855  0.3702
 7295PP      PP17399   4.394   8.042   3.241  0.1710  0.1039  0.0147
 7296PP      PP17400   3.665  14.138   2.537 -0.0422 -0.2364  0.2962
 7297PP      PP17401   4.895   1.634  11.083 -0.0546 -0.1127  0.1216
 7298PP      PP17402   4.316   9.951   0.110  0.3976 -0.2107  0.1836
 7299PP      PP17403  14.218  10.059   9.325  0.3138 -0.1103 -0.0453
 7300PP      PP17404   8.862   4.780  10.907 -0.0232 -0.0110  0.2234
 7301PP      PP17405   3.912  15.853  12.453 -0.0325  0.0286  0.0810
 7302PP      PP17406   6.890   5.987  12.314  0.4308 -0.2274  0.1194
 7303PP      PP17407   9.710  11.067   0.008 -0.5011  0.1826 -0.3919
 7304PP      PP17408   7.507  10.325   2.612 -0.1203 -0.0963 -0.2550
 7305PP      PP17409   8.451  11.987  12.849 -0.0108  0.3730 -0.2261
 7306PP      PP17410  13.253   7.605   2.139 -0.1602 -0.2234 -0.0687
 7307PP      PP17411   6.746   7.424  11.374 -0.0271  0.0645 -0.1333
 7308PP      PP17412   5.742   9.405   9.648  0.3810 -0.1560  0.1494
 7309PP      PP17413  10.889  10.265  12.625 -0.5053  0.0844  0.0970
 7310PP      PP17414   4.301   2.152  11.757  0.3007  0.0953  0.1056
 7311PP      PP17415  11.968   7.728   0.177 -0.1982 -0.1693  0.1030
 7312PP      PP17416   4.519   8.832   9.432 -0.1234 -0.0403 -0.2156
 7313PP      PP17417   6.883  14.319   4.545  0.3123 -0.1211  0.2776
 7314PP      PP17418   5.717  13.301   3.572  0.2983  0.3820 -0.2596
 7315PP      PP17419   0.760   5.200   1.917  0.0592  0.1451  0.1983
 7316PP      PP17420   9.750  10.676   2.530 -0.2061 -0.1766 -0.1556
 7317PP      PP17421   8.040   5.861   9.988 -0.0842 -0.0279  0.0173
 7318PP      PP17422  14.636   4.488  10.174  0.1370  0.2281 -0.0390
 7319PP      PP17423   1.821   2.719   3.083 -0.0128 -0.1485 -0.0968
 7320PP      PP17424  11.171  14.828   4.089  0.0384  0.1762  0.0697
 7321PP      PP17425  10.774   6.055   8.142 -0.0897  0.2270  0.0348
 7322PP      PP17426  13.940   1.230   9.872 -0.0132 -0.1451  0.1752
 7323PP      PP17427  12.353   1.480  12.468 -0.3357  0.1014 -0.0498
 7324PP      PP17428   9.462  14.575  11.420 -0.3241  0.0601 -0.1188
 7325PP      PP17429  14.733   9.493   1.587  0.3991 -0.1353  0.2167
 7326PP      PP17430   1.984   0.077  13.368 -0.1279  0.0993  0.1250
 7327PP      PP17431  15.242  11.616  12.851  0.0789  0.0946 -0.0668
 7328PP      PP17432  13.831   7.277  13.302  0.2397  0.0675  0.1961
 7329PP      PP17433  11.418  15.373   2.551 -0.1318  0.0095  0.3873
 7330PP      PP17434  11.551  10.203   0.994 -0.1551  0.2914  0.1177
 7331PP      PP17435   4.239  14.687   4.129  0.2028  0.0427 -0.1136
 7332PP      PP17436  12.597   1.003   3.888 -0.3138 -0.0820 -0.0662
 7333PP      PP17437  12.679  11.840   0.938 -0.0792 -0.0042  0.0099
 7334PP      PP17438   6.240  13.920  11.915  0.4319 -0.0494 -0.0490
 7335PP      PP17439   6.216   8.670   2.802  0.1516 -0.2559 -0.2028
 7336PP      PP17440   7.722   8.995   3.470  0.0443  0.0353  0.0417
 7337PP      PP17441   6.879   8.826   3.897 -0.0823  0.2436  0.0576
 7338PP      PP17442  14.663   8.644   1.361 -0.0587 -0.1321 -0.0003
 7339PP      PP17443   0.243   3.240  12.554  0.0493 -0.0399 -0.2071
 7340PP      PP17444  13.755   6.108   2.963 -0.0950  0.3892  0.0372
 7341PP      PP17445  13.488   1.061   9.631 -0.2599 -0.0015  0.3657
 7342PP      PP17446   1.092   8.685  12.802 -0.1063  0.2332  0.0144
 7343PP      PP17447  11.539   5.533  12.836 -0.0334  0.1096 -0.3474
 7344PP      PP17448   5.347   5.466  11.895 -0.0639  0.2287 -0.4251
 7345PP      PP17449   5.024   5.856   2.464  0.1813  0.0394  0.1235
 7346PP      PP17450  14.464   8.601  13.504  0.2374 -0.4303  0.0117
 7347PP      PP17451   8.822  14.993  12.048  0.2027  0.2405 -0.0212
 7348PP      PP17452   3.603   6.032  10.198 -0.0495 -0.0311 -0.1100
 7349PP      PP17453  12.996  10.762  10.202 -0.2930  0.2517  0.3493
 7350PP      PP17454  10.034   5.036  11.593 -0.0373 -0.0531 -0.0233
 7351PP      PP17455   6.973   2.891   2.699 -0.0133 -0.1808  0.1335
 7352PP      PP17456   5.351  11.567  11.657 -0.1964 -0.1049  0.0048
 7353PP      PP17457   7.792   3.257   2.581 -0.0287 -0.1388  0.2721
 7354PP      PP17458  13.981  14.865  10.859  0.2046  0.4134 -0.1423
 7355PP      PP17459   0.017   9.440   2.600 -0.2238  0.0913  0.1649
 7356PP      PP17460   0.571   9.288  11.604  0.0786 -0.1048 -0.4958
 7357PP      PP17461   0.152   4.763   8.890 -0.0840  0.2269 -0.1941
 7358PP      PP17462   0.038  11.074   2.594 -0.0263  0.3781 -0.0936
 7359PP      PP17463   5.468  10.697   1.638  0.1102 -0.0596  0.1057
 7360PP      PP17464  15.076   3.694  12.425 -0.3783  0.2157 -0.0197
 7361PP      PP17465  11.344   8.619   3.170 -0.3777 -0.0271  0.1258
 7362PP      PP17466   1.176   2.954   1.592 -0.0643 -0.1100  0.4799
 7363PP      PP17467   1.023   6.834  11.928  0.0229  0.0750 -0.1872
 7364PP      PP17468   7.745   8.222   0.065 -0.1833  0.2065  0.0814
 7365PP      PP17469   2.029   6.089   1.840 -0.2122 -0.0729 -0.6208
 7366PP      PP17470  14.379  13.092  10.071 -0.1799  0.1581  0.1211
 7367PP      PP17471   1.513   9.011   2.483 -0.1717  0.1357 -0.1885
 7368PP      PP17472   5.322   6.853   8.467  0.2985  0.2573 -0.0800
 7369PP      PP17473   2.683   1.875   0.591  0.1660  0.0706  0.2152
 7370PP      PP17474   5.091   9.634   8.381  0.1235 -0.1097 -0.0408
 7371PP      PP17475  11.153   9.182   9.066  0.0338 -0.1959 -0.1653
 7372PP      PP17476   2.218  11.552  12.244  0.0251  0.1331  0.2863
 7373PP      PP17477   0.745   8.783   8.995 -0.1565  0.0293  0.1737
 7374PP      PP17478   8.538   8.458   1.529 -0.2196  0.1618  0.0293
 7375PP      PP17479   8.895   0.636   0.725  0.2286  0.0581  0.0817
 7376PP      PP17480   6.800   9.406   4.082 -0.1002  0.2326 -0.1829
 7377PP      PP17481  13.048   8.774  11.515  0.1971 -0.0038 -0.1559
 7378PP      PP17482   4.691  14.608   4.409 -0.0045  0.1377  0.1281
 7379PP      PP17483   7.102   5.553   1.349 -0.1974  0.1124 -0.0577
 7380PP      PP17484   4.856   2.538   2.795 -0.1198  0.4635 -0.2742
 7381PP      PP17485  15.671   3.699   3.632  0.1459 -0.1811  0.2252
 7382PP      PP17486  14.832   8.103   1.464  0.1537  0.1758 -0.1982
 7383PP      PP17487  10.444   3.839   0.364  0.0479  0.0493 -0.0544
 7384PP      PP17488   6.482  13.276   2.923 -0.2909  0.2117 -0.0202
 7385PP      PP17489   6.156   6.740   8.537  0.0180  0.3244  0.0273
 7386PP      PP17490   5.400  14.227   4.841  0.0610  0.0455  0.3051
 7387PP      PP17491   9.088  15.517  10.655 -0.0813 -0.1250  0.3685
 7388PP      PP17492   0.024   2.340  11.050 -0.0122 -0.3526 -0.0761
 7389PP      PP17493   4.264  12.670   8.991 -0.4129  0.2216  0.2163
 7390PP      PP17494  10.794  12.374  13.239 -0.2726  0.1813 -0.1383
 7391PP      PP17495  12.941   1.325  11.504 -0.0205  0.1149 -0.2340
 7392PP      PP17496  11.785  14.700  11.238  0.2636 -0.2037 -0.1035
 7393PP      PP17497  14.564   6.676  11.749 -0.3604  0.2855 -0.3014
 7394PP      PP17498  12.083   1.593   4.509  0.0663 -0.2116  0.0746
 7395PP      PP17499   5.051  13.269  12.912  0.0364  0.0821  0.0480
 7396PP      PP17500   4.530   0.761   3.461 -0.0703  0.1027  0.1699
 7397PP      PP17501   3.925   9.688  10.171  0.4683  0.2419  0.0449
 7398PP      PP17502  11.400   8.321   0.542 -0.3521 -0.1042 -0.2862
 7399PP      PP17503  14.967  13.682  12.406 -0.1356  0.0629  0.0519
 7400PP      PP17504  11.019   0.621   2.336 -0.1507  0.0603 -0.4243
 7401PP      PP17505   5.505   2.850   9.151  0.0049 -0.2500  0.2287
 7402PP      PP17506   9.140   6.973   0.624  0.4471 -0.1247 -0.1343
 7403PP      PP17507  10.804  13.597   9.880 -0.0649 -0.0875  0.1363
 7404PP      PP17508  10.354  10.937   0.051  0.2688  0.0775  0.0929
 7405PP      PP17509   0.342   5.103  12.976 -0.0636  0.3410  0.1428
 7406PP      PP17510  12.785   6.298   0.477 -0.0970 -0.5118 -0.2495
 7407PP      PP17511  12.704   3.284   2.223  0.2268 -0.0954 -0.2186
 7408PP      PP17512   7.021   0.322   9.502  0.2748  0.0149  0.0704
 7409PP      PP17513  14.681   3.960   1.887 -0.0144  0.3749  0.0184
 7410PP      PP17514   3.530  15.273  11.954 -0.1253 -0.0765 -0.1173
 7411PP      PP17515   5.055   9.674   8.866 -0.0247  0.2694  0.0062
 7412PP      PP17516   4.334   9.401   3.993 -0.0180 -0.2340  0.1340
 7413PP      PP17517  11.553  14.584   0.320 -0.0591  0.1699  0.0477
 7414PP      PP17518  12.860  12.200  11.144  0.2757  0.1782  0.0182
 7415PP      PP17519   4.986  15.097  12.072 -0.0064 -0.1768  0.1474
 7416PP      PP17520   7.475   4.118   2.768 -0.0084 -0.1471  0.4121
 7417PP      PP17521   9.411  11.566   1.754  0.1423 -0.0128 -0.1870
 7418PP      PP17522   1.296   5.093   9.975  0.3057  0.1221 -0.2113
 7419PP      PP17523  12.581  13.875   2.258 -0.0134 -0.1283 -0.0778
 7420PP      PP17524   5.152  11.873   0.563  0.0778  0.3404 -0.1850
 7421PP      PP17525   2.975   6.724  12.450 -0.1645 -0.2233 -0.5001
 7422PP      PP17526   1.749   0.180   0.756  0.0043 -0.1399  0.0700
 7423PP      PP17527  12.468  10.658   4.632 -0.1565 -0.0628 -0.1279
 7424PP      PP17528   8.530  13.514  12.464 -0.1207  0.0680 -0.1860
 7425PP      PP17529  14.405  13.748   1.494 -0.0156  0.0707 -0.0090
 7426PP      PP17530   4.853   7.569  12.007 -0.2058 -0.1093  0.1120
 7427PP      PP17531  13.043   7.898  13.329  0.1362  0.1153 -0.1376
 7428PP      PP17532   9.839  11.135   2.380  0.1344  0.1926  0.1425
 7429PP      PP17533   7.805   3.386   0.501  0.1551 -0.0677 -0.1194
 7430PP      PP17534   1.763  10.419  12.853  0.0067 -0.0410  0.0396
 7431PP      PP17535   8.574   5.238   2.393  0.3969 -0.0588 -0.1641
 7432PP      PP17536   0.268  10.804  13.235  0.4208  0.2214 -0.0013
 7433PP      PP17537  12.049  10.198   3.188  0.0077  0.0528 -0.1763
 7434PP      PP17538  14.779   9.457  13.374 -0.1366  0.3671  0.1922
 7435PP      PP17539  12.851   2.292  11.857  0.0687 -0.1694 -0.0545
 7436PP      PP17540  10.195  13.709  10.551 -0.1898 -0.4193 -0.0351
 7437PP      PP17541   4.582   8.750   0.659 -0.0542  0.0399  0.2439
 7438PP      PP17542   6.456  14.069   0.050 -0.0407  0.0581 -0.2219
 7439PP      PP17543   3.774  10.725   9.695 -0.0014 -0.1779  0.4650
 7440PP      PP17544  15.450  13.997  10.800  0.0978 -0.4516 -0.0187
 7441PP      PP17545   4.414   8.783  10.480 -0.2360 -0.3618 -0.1155
 7442PP      PP17546  14.922   1.612  11.830 -0.0059 -0.2810 -0.1069
 7443PP      PP17547   5.343   4.897   3.126  0.2717  0.2019  0.1893
 7444PP      PP17548   1.643   7.806  12.493  0.0750  0.3675  0.1325
 7445PP      PP17549   0.095   5.297   1.895  0.0573 -0.0840 -0.2130
 7446PP      PP17550  14.245   1.798  11.041 -0.3574  0.0498  0.0029
 7447PP      PP17551   5.590   7.759  12.057 -0.0895 -0.2969  0.0995
 7448PP      PP17552   6.952  15.283  13.106 -0.0031  0.2038  0.0853
 7449PP      PP17553  10.555   0.980   0.929 -0.0165  0.1732 -0.1071
 7450PP      PP17554   8.203   4.531  11.689  0.1357 -0.0494  0.0986
 7451PP      PP17555  15.639  15.132  11.960  0.3099  0.2171  0.4153
 7452PP      PP17556   1.156  14.641   4.122 -0.0719  0.0944 -0.0357
 7453PP      PP17557  11.642   6.419   7.619 -0.1677  0.2009  0.0624
 7454PP      PP17558   4.666   0.257  10.707 -0.2817 -0.3173 -0.0083
 7455PP      PP17559   7.274  11.455   1.908  0.1177  0.2867 -0.1091
 7456PP      PP17560  13.350  14.556   3.011  0.1260  0.2506 -0.0809
 7457PP      PP17561  15.648  11.259   0.860 -0.2783 -0.0757 -0.1483
 7458PP      PP17562  13.399  15.025  12.748 -0.0114 -0.0205  0.1122
 7459PP      PP17563   0.722   0.037  12.269  0.3539 -0.0782  0.1275
 7460PP      PP17564   1.546  12.754   2.932 -0.3931 -0.2618 -0.0419
 7461PP      PP17565  10.597   1.085   0.427 -0.0128 -0.2282 -0.0841
 7462PP      PP17566  11.656   1.681  10.998 -0.3594 -0.0352  0.0392
 7463PP      PP17567  13.898  11.309   2.549  0.2411  0.1757 -0.0915
 7464PP      PP17568  12.777  12.876  12.443  0.1431  0.0290 -0.1212
 7465PP      PP17569   5.047   0.492   2.200  0.0892  0.0482  0.3376
 7466PP      PP17570   5.099   2.171  12.422  0.1495 -0.0909 -0.1449
 7467PP      PP17571  15.217   5.757   1.387  0.0922 -0.4024  0.1586
 7468PP      PP17572  14.225   3.287  12.158  0.2194 -0.0840 -0.0672
 7469PP      PP17573   5.586  11.144   1.779  0.0162 -0.2225 -0.2194
 7470PP      PP17574  14.410   9.436   3.034 -0.1267  0.0493  0.2827
 7471PP      PP17575  12.521   6.850   2.744  0.1598 -0.1213 -0.1917
 7472PP      PP17576   5.104  14.923   9.928 -0.1075  0.0014 -0.0657
 7473PP      PP17577  15.849   2.617   2.711  0.4104 -0.4046  0.3774
 7474PP      PP17578   1.831   4.180   0.136  0.1923 -0.0513  0.0894
 7475PP      PP17579   7.111  15.740  10.918  0.0033 -0.1456 -0.1252
 7476PP      PP17580   2.572   0.001   1.745  0.1195  0.1256 -0.1522
 7477PP      PP17581   5.929   9.364  12.059 -0.3445  0.0667 -0.1724
 7478PP      PP17582   9.341   6.298   2.296  0.2787  0.1232  0.0691
 7479PP      PP17583   1.652  15.431   3.532  0.1102 -0.0675  0.4333
 7480PP      PP17584  13.795  11.167  13.209  0.1475  0.1562 -0.2435
 7481PP      PP17585  10.428   0.184   0.787  0.1936 -0.2395 -0.1452
 7482PP      PP17586  10.603   4.134   9.596  0.5202 -0.1118 -0.1592
 7483PP      PP17587   5.136  11.017  11.310 -0.3216 -0.4137  0.1102
 7484PP      PP17588   6.983   1.619   1.038  0.1694 -0.0239  0.1483
 7485PP      PP17589  14.846  13.707   2.354 -0.2800  0.1045  0.0710
 7486PP      PP17590  15.150   3.497   3.667  0.1726  0.2641 -0.1357
 7487PP      PP17591   1.195   4.675  10.230 -0.0775 -0.1024  0.0226
 7488PP      PP17592   8.020  11.847   1.269  0.0896 -0.0340  0.0337
 7489PP      PP17593   6.930   1.569  13.119  0.1542 -0.3322 -0.2496
 7490PP      PP17594  11.884   6.673   0.311 -0.0480 -0.0998  0.1478
 7491PP      PP17595  10.387   1.723   2.720 -0.0823 -0.0684  0.1961
 7492PP      PP17596  12.693   8.648  13.249  0.0573 -0.2056 -0.3547
 7493PP      PP17597   4.444   2.906   1.780 -0.2352 -0.2386 -0.1528
 7494PP      PP17598  13.000  15.768   4.455 -0.0573  0.0901  0.0020
 7495PP      PP17599   0.564  12.936   1.990  0.2064 -0.1999  0.2612
 7496PP      PP17600  10.559   6.587  13.348  0.2931  0.2803  0.1526
 7497PP      PP17601   1.939   7.848  12.874  0.2035 -0.0208 -0.1009
 7498PP      PP17602   9.393  13.774   9.520 -0.2208  0.3925  0.0104
 7499PP      PP17603   9.512   4.774   8.641 -0.0235  0.0393  0.1134
 7500PP      PP17604   5.874   4.506   2.480  0.3926  0.1465  0.0861
 7501PP      PP17605   5.943  11.207   1.416 -0.1460  0.4403  0.1887
 7502PP      PP17606   1.163  15.275  10.066 -0.0123  0.0031  0.0176
 7503PP      PP17607  12.786   5.683   8.713  0.1200 -0.1207  0.2635
 7504PP      PP17608   9.104   0.864   3.643 -0.1526 -0.0770  0.0555
 7505PP      PP17609   8.042   2.860   2.619 -0.0598 -0.2036 -0.3233
 7506PP      PP17610  12.542   3.232  13.473  0.0761 -0.3042  0.0518
 7507PP      PP17611   9.433  10.966   4.779 -0.2769  0.1743 -0.0488
 7508PP      PP17612   6.899   6.107   0.818 -0.1138  0.0087 -0.2098
 7509PP      PP17613   4.834   3.980  12.517  0.1898 -0.3863 -0.3955
 7510PP      PP17614   6.539   8.357   8.621 -0.1304 -0.4880 -0.3237
 7511PP      PP17615   6.497   3.757   1.967 -0.2190 -0.3176  0.0459
 7512PP      PP17616   0.475  13.857  12.260 -0.3519  0.1299 -0.0890
 7513PP      PP17617   0.734  13.236  10.156 -0.0558  0.2771  0.2986
 7514PP      PP17618  10.506   1.897  11.923 -0.2281 -0.0766  0.0119
 7515PP      PP17619  14.369   8.875  10.966 -0.4681 -0.0945  0.0377
 7516PP      PP17620   3.838  14.943   0.080 -0.1410  0.1082 -0.1885
 7517PP      PP17621   0.400  11.783   9.320  0.1073 -0.2959  0.1761
 7518PP      PP17622  15.429  13.627   3.980  0.1163 -0.2440 -0.0619
 7519PP      PP17623   8.355   4.663   3.747  0.3113  0.2235  0.1261
 7520PP      PP17624   5.316   0.856  13.290 -0.1588 -0.1705 -0.3319
 7521PP      PP17625   5.752  15.182   0.620 -0.2725  0.0806  0.0967
 7522PP      PP17626  10.083   2.914   3.924 -0.1350  0.0221 -0.2408
 7523PP      PP17627  11.339   9.244  13.347 -0.0413 -0.1618  0.2671
 7524PP      PP17628  14.889   3.791   9.272 -0.1468 -0.0806 -0.1460
 7525PP      PP17629   1.711  10.633   4.137 -0.1326  0.0364  0.2144
 7526PP      PP17630  15.397   2.185   1.805  0.0747 -0.1085  0.2051
 7527PP      PP17631   9.105   3.161   0.693  0.5535  0.2075  0.2036
 7528PP      PP17632   5.465   0.942  12.776  0.3462 -0.4457 -0.0359
 7529PP      PP17633   2.262  13.774   0.698  0.1637 -0.0959 -0.2454
 7530PP      PP17634  15.655  15.020   0.164 -0.1676  0.2787 -0.0632
 7531PP      PP17635   8.949  13.001   0.595  0.1130  0.0255  0.1286
 7532PP      PP17636  14.865   4.628   3.286 -0.0168  0.0240  0.0017
 7533PP      PP17637   3.401   2.263  11.206  0.0689 -0.0068  0.0874
 7534PP      PP17638   9.324  12.448   2.848 -0.0612  0.1611 -0.1825
 7535PP      PP17639   9.679   6.565  11.162  0.0057  0.1769  0.0619
 7536PP      PP17640  10.147   7.777   9.964 -0.1622 -0.0240  0.0535
 7537PP      PP17641   6.362   5.609   0.075 -0.0832 -0.1610 -0.2574
 7538PP      PP17642   4.016  14.643  13.242  0.2997 -0.1414 -0.1524
 7539PP      PP17643   9.452  14.885   1.867 -0.0139 -0.2262  0.0477
 7540PP      PP17644  12.519  10.975  11.793 -0.2732  0.1936 -0.1944
 7541PP      PP17645  15.072   1.612   9.634 -0.1454 -0.2135 -0.0642
 7542PP      PP17646   1.928   0.629  13.357 -0.1019 -0.1060 -0.3694
 7543PP      PP17647   6.734  11.653   4.612  0.1312 -0.2798 -0.1234
 7544PP      PP17648   5.445  12.391  13.425 -0.1365 -0.2375  0.2258
 7545PP      PP17649   4.318   7.614   9.760  0.0726 -0.0243  0.1920
 7546PP      PP17650   4.697   6.738  10.733 -0.0331  0.0085  0.2201
 7547PP      PP17651   0.421   4.703   1.403 -0.0369 -0.2906 -0.1174
 7548PP      PP17652  10.501   1.943   0.528 -0.2928 -0.0066  0.1885
 7549PP      PP17653   5.492   9.711  10.393 -0.0741 -0.0779  0.0204
 7550PP      PP17654   6.659   6.654   8.940 -0.1065 -0.1077  0.0696
 7551PP      PP17655   5.984   8.686   3.854  0.0824 -0.0774  0.0101
 7552PP      PP17656  14.526  13.704   3.978 -0.0796 -0.2960 -0.1405
 7553PP      PP17657   7.687   7.188  12.379  0.4622 -0.0473 -0.0278
 7554PP      PP17658  12.959  14.600   2.686 -0.0441 -0.1297 -0.2693
 7555PP      PP17659   8.974   9.877   2.734 -0.1987 -0.1149 -0.1826
 7556PP      PP17660  10.086   6.691   2.773  0.0336 -0.1252 -0.0868
 7557PP      PP17661   0.159  15.787  13.024  0.2069 -0.1055 -0.0746
 7558PP      PP17662   9.602  13.136   1.586 -0.3138  0.1903 -0.0871
 7559PP      PP17663   3.922   4.363   4.174  0.0513 -0.2346 -0.3277
 7560PP      PP17664   7.436   0.324   2.983 -0.1444 -0.1571 -0.1410
 7561PP      PP17665   6.260   5.840   2.206 -0.1522 -0.0628 -0.1465
 7562PP      PP17666   1.222   1.955   3.698 -0.0883  0.2288  0.1390
 7563PP      PP17667   9.003   1.931  11.053  0.0158  0.4036  0.2328
 7564PP      PP17668   8.714  13.599   9.996 -0.3562  0.0880  0.2219
 7565PP      PP17669  12.800   7.338  13.292  0.1161 -0.2943 -0.2093
 7566PP      PP17670   1.896   8.495   0.171 -0.1170  0.1808 -0.0322
 7567PP      PP17671   4.926   4.367   0.434  0.0757 -0.0261 -0.1085
 7568PP      PP17672   8.926   5.000   1.496 -0.0057  0.1024  0.1165
 7569PP      PP17673   6.289   5.593  10.378  0.1027 -0.1751  0.3610
 7570PP      PP17674   1.519   6.298  11.250  0.0805 -0.0308 -0.0962
 7571PP      PP17675   7.219   8.250  13.259 -0.0845 -0.1470 -0.0945
 7572PP      PP17676   4.034  14.696  11.898 -0.2630 -0.1396  0.1128
 7573PP      PP17677  10.658  13.635   3.891 -0.0974  0.3398  0.1027
 7574PP      PP17678  13.474   2.199  10.542  0.0516  0.2083 -0.2505
 7575PP      PP17679  14.801   8.221  12.686 -0.0406  0.1759  0.1526
 7576PP      PP17680   8.687   6.015   0.539  0.1662  0.1647 -0.1149
 7577PP      PP17681   6.239   7.356   1.159  0.1414 -0.2149 -0.1628
 7578PP      PP17682   5.351  12.687  10.757 -0.0332 -0.0658  0.2561
 7579PP      PP17683  10.127  13.204   2.855 -0.1211  0.2484 -0.0605
 7580PP      PP17684  14.835   6.034   8.965  0.3440 -0.1736 -0.6171
 7581PP      PP17685  10.313   1.254  12.803 -0.0331 -0.0401  0.2915
 7582PP      PP17686  12.153   2.933   9.306  0.1499  0.0693  0.1938
 7583PP      PP17687   6.873   2.542  11.014  0.1174 -0.1693 -0.0676
 7584PP      PP17688   9.971   8.122  10.772  0.2024  0.2259 -0.1125
 7585PP      PP17689   8.068   6.624  13.041  0.1982  0.1506  0.1232
 7586PP      PP17690   7.420   6.524   8.404 -0.0426  0.1533 -0.2543
 7587PP      PP17691   1.970  11.894   1.720 -0.2087  0.3309 -0.1027
 7588PP      PP17692   7.013  15.834   8.537 -0.3402  0.1407  0.1406
 7589PP      PP17693  11.268   1.516  10.162  0.2303 -0.0414  0.0218
 7590PP      PP17694   0.589   1.986  10.604  0.2963  0.0873 -0.1050
 7591PP      PP17695  13.942   1.423   1.569 -0.4918 -0.0069 -0.0477
 7592PP      PP17696   5.614   2.338   0.639 -0.0546 -0.1814  0.3846
 7593PP      PP17697   9.504   2.020  12.033  0.0687 -0.0617 -0.2694
 7594PP      PP17698   9.891  12.995   2.405  0.0034 -0.0194 -0.1162
 7595PP      PP17699   2.574   3.363   9.177 -0.3490  0.1044  0.2554
 7596PP      PP17700   6.773   8.510  10.607 -0.0700  0.0685  0.1817
 7597PP      PP17701   6.984   4.989   3.557  0.0359 -0.0006 -0.0220
 7598PP      PP17702  14.937  10.304  12.885 -0.2117  0.0020 -0.4152
 7599PP      PP17703  10.845  13.511   1.627  0.1353 -0.0645  0.4079
 7600PP      PP17704   5.070  13.258  12.136 -0.1181  0.1803 -0.0035
 7601PP      PP17705   7.929   8.022  12.542  0.0706  0.1399  0.2268
 7602PP      PP17706   6.658  15.692   1.916  0.1412  0.1078  0.1412
 7603PP      PP17707   7.203   2.561   4.340 -0.1009 -0.0835 -0.0248
 7604PP      PP17708   4.476   3.387   2.163  0.4372  0.1824  0.2100
 7605PP      PP17709   9.645  10.606   1.008  0.1662 -0.2115 -0.1063
 7606PP      PP17710  12.605  14.784   2.286 -0.2010  0.3099 -0.1521
 7607PP      PP17711  12.789   6.490  12.225 -0.0200  0.3236 -0.4140
 7608PP      PP17712   7.822  14.017   4.227 -0.1393 -0.1309 -0.1838
 7609PP      PP17713  11.308  15.811   1.520  0.2640  0.0269  0.2964
 7610PP      PP17714   4.409  11.695   9.834 -0.0347  0.0128  0.4695
 7611PP      PP17715   1.211  12.110   9.846  0.1313  0.0625  0.1939
 7612PP      PP17716   4.685   4.604   3.849  0.2068 -0.0864  0.0008
 7613PP      PP17717   5.393   8.415  12.131 -0.1525  0.0037 -0.0993
 7614PP      PP17718   2.803   8.604   1.078 -0.0429 -0.0894 -0.3692
 7615PP      PP17719   8.869  15.395   1.211 -0.0774 -0.1161 -0.3231
 7616PP      PP17720   6.000  10.291  11.954 -0.0038  0.2810  0.0325
 7617PP      PP17721   0.152   6.932   3.221 -0.0056  0.1530  0.0548
 7618PP      PP17722   2.114  12.699  13.057  0.2175  0.0557  0.0776
 7619PP      PP17723   5.028   7.112   9.742 -0.2903  0.2983  0.3131
 7620PP      PP17724   3.371   0.042  13.142 -0.2599 -0.0216  0.3072
 7621PP      PP17725   8.838  11.769   3.460  0.0637  0.0435  0.1874
 7622PP      PP17726  11.909   5.114   9.204  0.0525  0.2376  0.1779
 7623PP      PP17727  12.264  14.604  12.501 -0.2296 -0.2916 -0.1134
 7624PP      PP17728  15.135   6.112  12.510 -0.3389  0.2208 -0.1572
 7625PP      PP17729  14.949   7.301   1.937 -0.1834 -0.1934 -0.0814
 7626PP      PP17730   7.651  14.928  11.838  0.0884  0.1682 -0.0993
 7627PP      PP17731  15.218   6.932  12.127  0.1151 -0.1658 -0.1784
 7628PP      PP17732   6.173   7.998   1.799  0.0569  0.2656 -0.0781
 7629PP      PP17733   1.871   4.164  11.573 -0.1711 -0.2503  0.2188
 7630PP      PP17734   9.737   7.529  10.844  0.1221 -0.4326  0.2024
 7631PP      PP17735   2.168   9.629   2.410 -0.0898 -0.1444  0.2592
 7632PP      PP17736   1.773   8.417   8.828  0.0152 -0.1532  0.0281
 7633PP      PP17737   0.928   2.399   3.350 -0.1412 -0.0463 -0.1108
 7634PP      PP17738   1.859   6.069  13.247 -0.0973 -0.0255 -0.1651
 7635PP      PP17739   6.101   2.453  10.452 -0.1075  0.0277  0.3683
 7636PP      PP17740   0.734   2.503  10.685 -0.3718 -0.2905 -0.1887
 7637PP      PP17741   4.225   3.911   1.489 -0.1424  0.0809 -0.0291
 7638PP      PP17742  13.393   2.559   3.090 -0.4862 -0.0381  0.2248
 7639PP      PP17743   0.044   3.124  12.001 -0.3924  0.4376  0.3293
 7640PP      PP17744   9.216   8.714   2.939 -0.2421  0.2406 -0.1322
 7641PP      PP17745   3.035   4.593  10.944  0.3583  0.0505  0.1407
 7642PP      PP17746  11.365  12.510  10.551  0.1076  0.4732 -0.0044
 7643PP      PP17747  10.814   0.524   3.694  0.1852 -0.1203  0.2518
 7644PP      PP17748  10.922   7.786   2.429  0.4656  0.0251 -0.0045
 7645PP      PP17749   9.263   2.510   3.832 -0.0983 -0.2948 -0.1204
 7646PP      PP17750   9.035   4.256   0.638  0.0792  0.1871  0.2008
 7647PP      PP17751   3.442   1.655  11.261 -0.0088  0.0172  0.0068
 7648PP      PP17752  10.990   2.111   0.856 -0.1303 -0.1056 -0.1474
 7649PP      PP17753  10.255   3.680  11.085  0.2517 -0.1735  0.2058
 7650PP      PP17754   8.986   8.368  10.011  0.0253 -0.0075 -0.0208
 7651PP      PP17755   2.565  13.235   9.387 -0.0326 -0.0672 -0.0160
 7652PP      PP17756  12.402   4.898   0.216 -0.1246  0.0374 -0.0222
 7653PP      PP17757   1.690  11.908   0.158  0.0042  0.1128  0.0325
 7654PP      PP17758   0.178  12.048   4.414 -0.1203 -0.1087 -0.0490
 7655PP      PP17759   7.054   1.250   9.740 -0.1621 -0.0662 -0.0964
 7656PP      PP17760   6.106   6.732   3.425  0.0228  0.2322  0.1247
 7657PP      PP17761  11.096   3.562   0.333 -0.4055 -0.3480 -0.0626
 7658PP      PP17762   0.043   4.166   2.298 -0.1320  0.0542 -0.2750
 7659PP      PP17763  14.771   3.439   3.272  0.0291 -0.0119 -0.0272
 7660PP      PP17764   2.587  13.819   1.486  0.2082 -0.0429 -0.3339
 7661PP      PP17765   5.439   5.193   0.674  0.2205 -0.1169 -0.2829
 7662PP      PP17766   2.498  11.031   3.119 -0.0338  0.1515 -0.1764
 7663PP      PP17767   3.679   7.517  13.429  0.0726  0.1908 -0.1351
 7664PP      PP17768   1.988  11.880  10.874 -0.0127 -0.0315  0.0390
 7665PP      PP17769   9.273  11.922   3.057 -0.0387  0.1103 -0.4408
 7666PP      PP17770   6.174  15.833   1.133  0.0483 -0.2651 -0.0277
 7667PP      PP17771   7.652   6.773   9.991 -0.3351  0.0626 -0.0715
 7668PP      PP17772  15.135  14.451  10.034  0.0101  0.1035 -0.0855
 7669PP      PP17773   2.716   2.083   1.907  0.0968 -0.0355  0.0837
 7670PP      PP17774  12.428  11.439   4.753  0.2110 -0.2237  0.1025
 7671PP      PP17775   7.056   6.076   8.371 -0.2688  0.1206  0.0607
 7672PP      PP17776  15.349   0.276  11.129 -0.1089  0.0455 -0.0987
 7673PP      PP17777   4.998  11.706  10.635  0.0963  0.0434 -0.1439
 7674PP      PP17778   0.695   8.921  13.067 -0.0223  0.0341  0.4370
 7675PP      PP17779   3.841   0.132   2.370 -0.2685  0.1110  0.2257
 7676PP      PP17780   7.256   1.683   9.264 -0.0735 -0.0596 -0.2659
 7677PP      PP17781   9.915   9.152   2.484  0.2574 -0.2035  0.1482
 7678PP      PP17782   9.049   2.976   2.669  0.0638 -0.0778 -0.1966
 7679PP      PP17783   6.613   4.916   9.079  0.0260 -0.1410  0.1586
 7680PP      PP17784   2.360   4.539   4.682 -0.0591 -0.2341  0.2071
 7681PP      PP17785   7.568  11.322   1.526  0.0107 -0.2465 -0.2860
 7682PP      PP17786   9.433  13.873   2.996 -0.0394  0.1925  0.1510
 7683PP      PP17787  11.316  14.375  10.440  0.0580  0.2733  0.0445
 7684PP      PP17788   7.453   8.572   8.321 -0.0233  0.0733 -0.2230
 7685PP      PP17789   2.171   8.149  11.958 -0.0632  0.1125 -0.0758
 7686PP      PP17790  15.072   0.552   9.271 -0.2720 -0.0468 -0.2428
 7687PP      PP17791   2.695   2.304   0.795  0.0247  0.2164 -0.1988
 7688PP      PP17792   2.237   4.637  13.516 -0.1990  0.0125  0.3220
 7689PP      PP17793   7.361  12.623  10.633 -0.0521 -0.3109 -0.1642
 7690PP      PP17794   4.298   6.757  11.108 -0.1548  0.3748 -0.0242
 7691PP      PP17795   1.774   3.218  11.349 -0.0263 -0.0877 -0.1510
 7692PP      PP17796   6.861   2.900  11.420  0.0118 -0.0988 -0.0598
 7693PP      PP17797   4.904   4.687   9.773  0.2358  0.1096  0.2290
 7694PP      PP17798   5.112   3.539   2.754 -0.0573  0.2838  0.1978
 7695PP      PP17799  12.158   9.142   9.096  0.1051  0.1309  0.2471
 7696PP      PP17800   1.755   7.671   1.556 -0.1931  0.0153  0.1047
 7697PP      PP17801   8.515  14.363  13.535  0.0446 -0.2888 -0.1807
 7698PP      PP17802  15.571   9.769   1.469  0.0065 -0.1847  0.1180
 7699PP      PP17803   2.579   9.271   8.435 -0.3692 -0.1547 -0.1330
 7700PP      PP17804   7.708  12.246   3.124 -0.1303  0.0664  0.2396
 7701PP      PP17805   7.159   5.895   2.467 -0.0989 -0.0988 -0.0152
 7702PP      PP17806   7.536  12.334   9.365 -0.2588 -0.1776 -0.1550
 7703PP      PP17807   5.982  14.372  10.500  0.0690 -0.3147  0.2415
 7704PP      PP17808   5.633  13.915   3.954  0.0335 -0.2698 -0.1129
 7705PP      PP17809   6.890   5.570   2.800  0.0081 -0.1289 -0.0017
 7706PP      PP17810   7.807  15.149   1.367  0.1918 -0.0595 -0.2553
 7707PP      PP17811   1.411   4.793   9.463  0.0130  0.0406 -0.2841
 7708PP      PP17812   6.124  11.341   9.093 -0.0603 -0.0262  0.1842
 7709PP      PP17813  10.863   1.840  10.027 -0.1183  0.2552  0.0286
 7710PP      PP17814  14.492  13.577  10.197  0.0436  0.1021  0.0009
 7711PP      PP17815   8.767  12.737  11.299  0.0898  0.0552  0.0635
 7712PP      PP17816   9.782  14.972  11.853 -0.1992 -0.0469  0.3582
 7713PP      PP17817   2.229   8.800   1.200 -0.1143 -0.0336 -0.1162
 7714PP      PP17818  11.127  14.145  12.929  0.0228  0.0486  0.0348
 7715PP      PP17819  10.156  15.046  10.116 -0.0149  0.0893 -0.1394
 7716PP      PP17820   9.716   1.333   2.021  0.0304 -0.1549  0.1350
 7717PP      PP17821  10.577  11.770   4.085  0.0038 -0.2441  0.0824
 7718PP      PP17822   8.147  14.332  11.357  0.2935 -0.3857  0.0342
 7719PP      PP17823   3.322   5.516  10.585  0.1880 -0.1337  0.0170
 7720PP      PP17824   8.085   6.644   2.304  0.0434 -0.0028 -0.3011
 7721PP      PP17825   2.462   6.102   1.541 -0.0018  0.0775  0.3196
 7722PP      PP17826   3.713   1.999  13.144 -0.0879  0.0133  0.3660
 7723PP      PP17827   7.971  15.165  11.503 -0.2476  0.2980 -0.0137
 7724PP      PP17828   6.515   1.821   1.518 -0.3831 -0.2137 -0.0133
 7725PP      PP17829   3.061   8.763   9.629  0.1561  0.4024  0.0679
 7726PP      PP17830  15.391  13.696   9.129 -0.1738  0.0558  0.2668
 7727PP      PP17831  13.091   9.649   1.663 -0.0719  0.0432  0.0123
 7728PP      PP17832  10.340   1.272  13.409  0.1661  0.0536  0.3043
 7729PP      PP17833   1.853  13.241   9.994  0.3538 -0.0174 -0.0847
 7730PP      PP17834   7.042   0.780  12.016 -0.1248 -0.3564 -0.1388
 7731PP      PP17835  14.054  10.536  13.110  0.0427 -0.1901 -0.1580
 7732PP      PP17836   5.672   7.870   9.830 -0.0890 -0.4579 -0.1508
 7733PP      PP17837   2.554   8.644   9.551 -0.2910 -0.0438  0.0067
 7734PP      PP17838  13.392  10.937  11.309 -0.3984  0.0873 -0.2818
 7735PP      PP17839   3.581  13.018  11.228 -0.2557  0.1196  0.0380
 7736PP      PP17840  10.014  15.748  13.010  0.2174 -0.0201 -0.0952
 7737PP      PP17841  12.183  11.308  11.667 -0.3428  0.1276 -0.0864
 7738PP      PP17842  12.499   8.823  11.873  0.2153 -0.1978 -0.0411
 7739PP      PP17843   4.597   7.643   0.464 -0.1963 -0.1267  0.2305
 7740PP      PP17844   3.273  13.612  12.736 -0.1747 -0.1446  0.2714
 7741PP      PP17845   0.074  12.239   9.073  0.2176 -0.0006 -0.0702
 7742PP      PP17846   0.021   5.966   8.978  0.1371  0.0566  0.2723
 7743PP      PP17847  12.358  12.966   9.967  0.0477  0.0778 -0.1782
 7744PP      PP17848   2.792   1.189  10.270  0.0526  0.0461  0.0452
 7745PP      PP17849   6.449   1.073   9.091  0.0039  0.1598 -0.0698
 7746PP      PP17850   4.514   7.141   5.054  0.2859 -0.0640 -0.1144
 7747PP      PP17851   6.941   4.381   8.938  0.2025 -0.0079  0.1193
 7748PP      PP17852  13.776   3.879   1.132  0.2589 -0.1463 -0.0732
 7749PP      PP17853  10.781   5.299  13.177 -0.2791 -0.2993  0.0474
 7750PP      PP17854  12.335   1.073   2.732 -0.1089  0.1290  0.1615
 7751PP      PP17855   9.191   9.084   2.465 -0.0421  0.1630  0.1385
 7752PP      PP17856   7.660   9.921   1.097 -0.0266  0.4174  0.1787
 7753PP      PP17857   6.349   3.326   2.737  0.3946 -0.0225  0.0483
 7754PP      PP17858   3.305   2.243   9.564 -0.3065 -0.1398 -0.1152
 7755PP      PP17859  10.302   8.734   9.641  0.1080  0.1241  0.3526
 7756PP      PP17860  15.452   0.410   0.298  0.0860  0.2327  0.1607
 7757PP      PP17861   8.608   6.314   0.131  0.0926  0.1689  0.2141
 7758PP      PP17862   6.486  13.784   1.464  0.3245  0.0481 -0.0260
 7759PP      PP17863   4.290  12.826  13.448 -0.0227  0.0985 -0.1203
 7760PP      PP17864   2.702   5.171  12.009  0.2932 -0.0576 -0.0180
 7761PP      PP17865   0.917   5.787  13.197  0.1485  0.0189  0.1537
 7762PP      PP17866   4.056   2.251  12.137 -0.0243 -0.0082  0.0296
 7763PP      PP17867   2.591  15.568   4.519 -0.0427  0.2473  0.2020
 7764PP      PP17868  12.996   4.824   3.940 -0.3390 -0.1705 -0.0994
 7765PP      PP17869  15.439  10.330   0.564 -0.0380 -0.0312  0.0355
 7766PP      PP17870   9.368   8.639   9.275 -0.1973 -0.3796  0.0299
 7767PP      PP17871   2.207  12.656  11.331 -0.4010 -0.0226  0.1580
 7768PP      PP17872  10.484   5.639  12.553  0.2541  0.2851  0.0663
 7769PP      PP17873  12.370  13.076  12.255 -0.0615 -0.2045  0.0460
 7770PP      PP17874   2.903  15.339   3.198 -0.2052  0.1657  0.0623
 7771PP      PP17875   7.294  10.168   3.733 -0.0489 -0.0878 -0.0020
 7772PP      PP17876  11.860   2.622   1.279 -0.0238 -0.2104  0.1969
 7773PP      PP17877  13.942   6.576   2.865 -0.0448 -0.1428  0.0620
 7774PP      PP17878  14.103  10.159  11.251  0.1717 -0.3197  0.0610
 7775PP      PP17879   1.124   3.083   4.031 -0.1802  0.0020  0.2366
 7776PP      PP17880  12.141   8.702   1.950  0.0738 -0.0143 -0.3377
 7777PP      PP17881  15.149   2.706   2.026  0.0580  0.1040 -0.1018
 7778PP      PP17882  12.526   2.462   1.934  0.1804  0.1608 -0.2829
 7779PP      PP17883   7.644   2.875  10.728 -0.0362  0.0623  0.3735
 7780PP      PP17884   3.051   3.185   1.087 -0.1505 -0.0191  0.1811
 7781PP      PP17885   1.086  15.261  11.621  0.1348  0.0843 -0.0253
 7782PP      PP17886   9.350  11.027   2.486  0.0175 -0.0487  0.0810
 7783PP      PP17887   3.106   2.704  10.881 -0.0130 -0.1061  0.0179
 7784PP      PP17888   1.718   1.067  12.359 -0.0373 -0.1643  0.1624
 7785PP      PP17889   4.026  13.974  11.492 -0.0330  0.0618  0.0952
 7786PP      PP17890  12.435  15.166  11.912  0.0085 -0.2132  0.1095
 7787PP      PP17891   8.488  12.352  12.374 -0.2937  0.0820  0.0346
 7788PP      PP17892   8.999   5.741   3.311 -0.0595  0.0882  0.0350
 7789PP      PP17893  15.505  15.400   4.135 -0.2432  0.1688 -0.0636
 7790PP      PP17894  15.431  14.588   2.420 -0.0677 -0.2430 -0.1206
 7791PP      PP17895   0.715   2.177   0.641 -0.2591  0.1077 -0.1250
 7792PP      PP17896   8.286   0.517  13.450 -0.0992  0.0581 -0.3161
 7793PP      PP17897   4.318   6.678   2.322  0.1954 -0.3551 -0.0554
 7794PP      PP17898   5.159   2.175   9.422 -0.1476 -0.1430 -0.0775
 7795PP      PP17899   8.244  13.326   9.436 -0.0056 -0.2513 -0.2917
 7796PP      PP17900  13.165   4.741   0.514  0.2453  0.1773 -0.0306
 7797PP      PP17901   7.508   8.311   2.406 -0.1571 -0.1762  0.1805
 7798PP      PP17902   7.323   0.691   1.536  0.0790 -0.2850 -0.0121
 7799PP      PP17903  13.131  12.311   9.755 -0.1610 -0.3244 -0.0743
 7800PP      PP17904  10.769   5.468   2.377  0.1807 -0.1730  0.0473
 7801PP      PP17905   9.929   8.763   1.108  0.1723 -0.2065  0.1425
 7802PP      PP17906   2.549  10.976  11.294 -0.3040  0.1635  0.0132
 7803PP      PP17907  10.161  13.524  11.050 -0.0250  0.1945 -0.1141
 7804PP      PP17908  15.478   3.069   0.250  0.0330  0.0739  0.3104
 7805PP      PP17909  15.614  10.264   3.964  0.2573  0.1332  0.1051
 7806PP      PP17910   4.882   7.139   2.939  0.1733 -0.2900  0.0663
 7807PP      PP17911  13.513  11.229   8.995  0.0037 -0.0502 -0.0070
 7808PP      PP17912   7.248   9.406   3.168 -0.0634  0.0490 -0.0268
 7809PP      PP17913   5.696   8.517   1.180  0.0883  0.0068  0.1038
 7810PP      PP17914   0.955   5.002   4.040  0.1542  0.0279 -0.0161
 7811PP      PP17915   7.944   9.283  10.784  0.0578  0.2728 -0.1220
 7812PP      PP17916  14.657   3.276   3.730  0.2078  0.1299 -0.0139
 7813PP      PP17917  11.614   1.460   1.238 -0.2747 -0.0622 -0.2362
 7814PP      PP17918   7.944  15.477  11.946 -0.1926  0.2441  0.0494
 7815PP      PP17919   1.408   3.350   1.359  0.2780 -0.0385 -0.2825
 7816PP      PP17920   8.919   2.829   3.956 -0.1004  0.0405 -0.3029
 7817PP      PP17921  13.266   6.216   1.716  0.1197 -0.0949 -0.0686
 7818PP      PP17922   8.107   0.004   2.392 -0.2231  0.2333 -0.1486
 7819PP      PP17923  14.881   6.449   9.297  0.1648  0.0836  0.1382
 7820PP      PP17924  14.683   5.934   3.215 -0.1554  0.2494  0.2042
 7821PP      PP17925   2.785   3.393   3.406  0.0522 -0.0164  0.4416
 7822PP      PP17926   2.195  13.006   3.961  0.1843  0.0822 -0.3385
 7823PP      PP17927  15.586   7.989  10.356 -0.0596  0.0138  0.0718
 7824PP      PP17928  12.032  14.181   2.557 -0.1117 -0.2467  0.3212
 7825PP      PP17929   0.340   4.340   4.438  0.1721  0.0162 -0.3966
 7826PP      PP17930  10.946  15.091   3.505 -0.0051 -0.0995 -0.5060
 7827PP      PP17931  11.301   8.326  12.706  0.1628  0.0747 -0.2173
 7828PP      PP17932  11.133   1.136  11.855  0.1917 -0.0718 -0.1579
 7829PP      PP17933   7.957   1.022   1.857 -0.0155  0.3752  0.0309
 7830PP      PP17934  12.188   1.729   0.488 -0.1717 -0.0379  0.2272
 7831PP      PP17935   0.101   3.385   9.084 -0.0380  0.2705 -0.0437
 7832PP      PP17936   8.721  14.923   3.684  0.1067 -0.1620 -0.0419
 7833PP      PP17937   7.306   5.122  11.650 -0.2714  0.0132  0.1133
 7834PP      PP17938  12.704   5.858   9.138  0.1690  0.0422 -0.1995
 7835PP      PP17939   5.482   2.772  12.235 -0.0576 -0.2774  0.2249
 7836PP      PP17940  13.720   2.831  13.451  0.0896  0.1748 -0.3351
 7837PP      PP17941   2.628   8.015  12.134  0.3097 -0.0664 -0.0359
 7838PP      PP17942  12.168   8.159   0.134 -0.0211 -0.1447 -0.1269
 7839PP      PP17943  15.786  12.748   0.628  0.1477 -0.0610  0.0383
 7840PP      PP17944   6.191   3.781   4.439 -0.0197 -0.0031  0.1713
 7841PP      PP17945   4.247   4.051   2.324  0.1110  0.2317 -0.0411
 7842PP      PP17946   3.217  11.677   3.034 -0.1301  0.0308 -0.0831
 7843PP      PP17947  13.486   7.717   0.929  0.0406 -0.0569  0.3646
 7844PP      PP17948   6.245  11.701  10.416 -0.0557  0.2740  0.1804
 7845PP      PP17949   5.597   2.551  10.130 -0.0239 -0.3608  0.1368
 7846PP      PP17950   4.843  13.604   0.390  0.4398 -0.2005 -0.0788
 7847PP      PP17951   5.907  13.767   9.677 -0.1467  0.4465  0.4514
 7848PP      PP17952   7.487   4.162   4.264  0.2243  0.0400  0.3225
 7849PP      PP17953  12.267   7.576  12.467 -0.1465 -0.1237 -0.2999
 7850PP      PP17954   0.141   1.015   2.111 -0.0224 -0.2252 -0.2174
 7851PP      PP17955   7.585  11.389   9.449  0.2498  0.3692 -0.1804
 7852PP      PP17956   4.665  15.546   0.362 -0.2013  0.3516 -0.1284
 7853PP      PP17957   1.418   2.813  11.222 -0.4322 -0.1208  0.1341
 7854PP      PP17958   2.009   9.116   0.810  0.2426  0.0347 -0.1987
 7855PP      PP17959   6.272   2.833   3.456  0.1079 -0.0109 -0.0778
 7856PP      PP17960   5.136   9.418   0.315  0.3290  0.0980  0.1056
 7857PP      PP17961   3.357   6.930   3.764  0.1748 -0.1043  0.1478
 7858PP      PP17962   4.028   2.174   2.313  0.1262 -0.0874 -0.1135
 7859PP      PP17963  10.117   8.553   2.474  0.0079  0.0055  0.0308
 7860PP      PP17964   3.950   0.130   3.185 -0.0144  0.2065  0.0556
 7861PP      PP17965   6.605   9.179  11.512 -0.1327 -0.1105  0.0558
 7862PP      PP17966  10.821  14.642  11.635 -0.0282 -0.0406 -0.2800
 7863PP      PP17967   1.453   0.864   3.519  0.0368  0.1023  0.0355
 7864PP      PP17968   5.477  11.568   1.402  0.2142 -0.1396  0.0203
 7865PP      PP17969   2.153   0.436   9.423  0.1548  0.0611 -0.1636
 7866PP      PP17970   3.123  11.197   1.413  0.0789  0.1000 -0.1496
 7867PP      PP17971   2.087   1.155   0.977  0.1737 -0.2570  0.0291
 7868PP      PP17972  11.862   5.609  11.891  0.2404  0.3368 -0.1435
 7869PP      PP17973  15.289   6.873   9.023 -0.0215 -0.2344 -0.0340
 7870PP      PP17974   6.760   7.355  12.791  0.0623  0.0619 -0.1952
 7871PP      PP17975   9.474   3.384   9.477  0.2756 -0.4189 -0.0861
 7872PP      PP17976  15.052   3.185   0.520  0.3299 -0.2520 -0.2051
 7873PP      PP17977   4.164  11.297   9.066  0.3463 -0.0139  0.0154
 7874PP      PP17978   7.755   8.179  11.843 -0.0492  0.2675  0.0454
 7875PP      PP17979  11.724  13.929   9.035 -0.2834  0.0342  0.2363
 7876PP      PP17980   4.485   7.062   0.274 -0.0882 -0.5236  0.1987
 7877PP      PP17981   9.922   5.509   3.757  0.0124 -0.1685  0.5539
 7878PP      PP17982  12.512  14.125   1.587  0.2031  0.1089 -0.0279
 7879PP      PP17983   5.593   9.979   8.988  0.4035 -0.0713 -0.1588
 7880PP      PP17984  13.921   6.690  10.222  0.2639 -0.1248  0.0203
 7881PP      PP17985  12.266  13.572  10.854 -0.2078 -0.1282 -0.1185
 7882PP      PP17986   1.702   0.670   4.225  0.2379 -0.0835 -0.2033
 7883PP      PP17987  11.989  14.040   1.656 -0.0941  0.2239  0.0960
 7884PP      PP17988  13.818   3.652  11.555  0.3317 -0.0684  0.1094
 7885PP      PP17989  11.046   5.752  12.276 -0.3398  0.3604 -0.1152
 7886PP      PP17990   3.344   8.480  13.441  0.0902  0.1751 -0.3357
 7887PP      PP17991  13.559   0.054  12.184  0.0312  0.1263  0.3277
 7888PP      PP17992  13.246  14.570   9.434 -0.0117  0.2133  0.0345
 7889PP      PP17993  15.341   2.588  11.934  0.1274 -0.2852 -0.0783
 7890PP      PP17994   9.881  12.108  12.732  0.2190 -0.2878  0.0914
 7891PP      PP17995  10.570  15.652   3.832  0.1603 -0.1368  0.1874
 7892PP      PP17996   6.883  13.625   9.829 -0.1073 -0.1399  0.0963
 7893PP      PP17997   8.405  11.016   4.600  0.0445  0.1511  0.3265
 7894PP      PP17998   3.091   9.181   3.568  0.2520 -0.1844  0.0322
 7895PP      PP17999  11.130   6.620   1.076 -0.0291  0.0024  0.2053
 7896PP      PP18000   1.050   9.963   0.060 -0.0072 -0.1707  0.2284
 7897PP      PP18001   5.903  10.749  10.623 -0.0755  0.1955 -0.4206
 7898PP      PP18002   7.595   1.073   4.431 -0.1013  0.0132 -0.0423
 7899PP      PP18003   6.893  12.074  10.061 -0.0233  0.0387  0.0365
 7900PP      PP18004   0.140   2.018   8.820 -0.0320  0.1923  0.1872
 7901PP      PP18005   2.972  11.587   0.598 -0.0247  0.1893  0.0696
 7902PP      PP18006   3.281  13.754   9.248 -0.0434 -0.0248 -0.1184
 7903PP      PP18007   4.577   0.304  10.152  0.1221 -0.0693  0.1725
 7904PP      PP18008   1.401  11.799   1.869 -0.3757 -0.4225 -0.2083
 7905PP      PP18009  10.665  13.418   0.273  0.2502  0.2243 -0.1670
 7906PP      PP18010  14.881  14.561  13.124 -0.0654  0.1942 -0.1829
 7907PP      PP18011   2.132   4.481   1.702  0.0370 -0.0811 -0.1056
 7908PP      PP18012  10.583  12.757   4.166 -0.0180 -0.0414 -0.1572
 7909PP      PP18013   1.623   6.361   3.652  0.4027 -0.1326 -0.0277
 7910PP      PP18014  10.229   4.596  11.312  0.0964 -0.2999 -0.1219
 7911PP      PP18015  14.088   0.543   1.468 -0.0627 -0.0299  0.3150
 7912PP      PP18016   2.705   9.463  13.539  0.0048  0.2820 -0.0134
 7913PP      PP18017   0.095   3.843   4.048 -0.0041  0.2705 -0.2712
 7914PP      PP18018   9.677   8.696   2.700 -0.1099 -0.2506 -0.1073
 7915PP      PP18019   8.047  14.674  11.744  0.0107  0.2874 -0.1716
 7916PP      PP18020   8.827   8.426   3.181  0.0320 -0.0159 -0.1373
 7917PP      PP18021  12.435  11.137   0.177 -0.2339  0.3872  0.2339
 7918PP      PP18022   1.475  15.561  12.224 -0.1807  0.0107 -0.2583
 7919PP      PP18023   4.918   8.785  11.926  0.2131 -0.0396  0.1338
 7920PP      PP18024  12.026  11.482   0.055 -0.0068  0.2157  0.4243
 7921PP      PP18025   9.654  12.656   3.299  0.0005  0.1076 -0.0472
 7922PP      PP18026  12.335   7.088   7.501  0.0139 -0.4053  0.3867
 7923PP      PP18027   7.179   9.615  10.032  0.2831 -0.1887  0.1504
 7924PP      PP18028  12.741   9.087  12.660  0.0267 -0.2484 -0.1537
 7925PP      PP18029   3.327   1.246  10.272  0.2215 -0.1423 -0.1343
 7926PP      PP18030   6.598   0.645   2.768  0.1116 -0.1082  0.1835
 7927PP      PP18031   6.345  12.072   1.048  0.1471  0.2216  0.2055
 7928PP      PP18032   9.811   8.769   9.541 -0.0777  0.0772 -0.1700
 7929PP      PP18033   0.886  12.496   9.385  0.1793  0.1055  0.1475
 7930PP      PP18034   8.971  14.045   3.248  0.2942 -0.2237 -0.2186
 7931PP      PP18035   0.058   0.657  10.405 -0.4086 -0.2732  0.1353
 7932PP      PP18036  14.004   0.310   2.552 -0.0519  0.0090 -0.0411
 7933PP      PP18037   6.916   9.521  12.767 -0.1057 -0.0887 -0.0046
 7934PP      PP18038  13.124   0.517   1.687 -0.1092 -0.4354  0.2399
 7935PP      PP18039  14.860  10.872   2.845 -0.0604 -0.1149  0.1098
 7936PP      PP18040   3.274   6.746  11.560 -0.0018  0.2072 -0.0290
 7937PP      PP18041   5.685  10.449  10.995  0.0276  0.1824  0.1883
 7938PP      PP18042   5.236   4.682   1.264  0.3728  0.0430  0.1899
 7939PP      PP18043  15.642  13.668   3.036 -0.1209 -0.0372  0.0974
 7940PP      PP18044  14.187   7.006   2.916 -0.1502 -0.3892 -0.0309
 7941PP      PP18045   1.110  14.822  13.336 -0.0288 -0.1086 -0.1041
 7942PP      PP18046   0.529   8.989   9.384 -0.2030 -0.1738  0.0346
 7943PP      PP18047   2.490  15.221  10.428 -0.0034 -0.2531 -0.0134
 7944PP      PP18048  10.685   1.739   1.360  0.2671  0.1821 -0.0063
 7945PP      PP18049  15.582   5.913   0.491  0.1027 -0.2825 -0.1827
 7946PP      PP18050   7.226  12.151   1.721  0.0888 -0.2594  0.1058
 7947PP      PP18051   4.963   5.904   4.635 -0.3577 -0.1000 -0.2695
 7948PP      PP18052   2.732  10.503  12.808  0.0830  0.0885  0.5957
 7949PP      PP18053   0.496   7.855   2.690 -0.0523 -0.2086  0.4204
 7950PP      PP18054  12.325  11.711  10.559  0.1405  0.2481  0.0139
 7951PP      PP18055   3.767   9.237  11.068  0.0638  0.1056 -0.0050
 7952PP      PP18056   9.779   4.968  12.042  0.2116  0.0809  0.0487
 7953PP      PP18057  10.737   7.270  10.470  0.0137  0.1246 -0.0902
 7954PP      PP18058   9.452  10.474  11.355 -0.0586  0.1401 -0.0313
 7955PP      PP18059   2.054  13.990   9.094 -0.1790 -0.1692  0.0763
 7956PP      PP18060   8.673   3.200   0.959  0.0527  0.1120 -0.2019
 7957PP      PP18061   8.789   1.532  11.282 -0.0608 -0.0810 -0.0649
 7958PP      PP18062  13.670   2.334   2.736  0.3239  0.0896 -0.1166
 7959PP      PP18063   9.781   6.596   9.660  0.1898 -0.0991  0.1098
 7960PP      PP18064  13.810   6.143   3.544  0.2819 -0.1516 -0.0525
 7961PP      PP18065   2.956  13.425  12.362 -0.2453 -0.1156 -0.0970
 7962PP      PP18066   4.587  13.001   9.211 -0.1065 -0.1312 -0.4488
 7963PP      PP18067   0.432  11.960   0.535 -0.2145 -0.0037 -0.2675
 7964PP      PP18068   1.284  14.583   1.240  0.0908 -0.3386 -0.0235
 7965PP      PP18069   3.401   6.333  10.881 -0.0897 -0.3037 -0.1400
 7966PP      PP18070   0.400   3.705   9.380  0.0963  0.4239  0.1680
 7967PP      PP18071  11.687  15.476  13.421  0.0454  0.1928  0.0454
 7968PP      PP18072   0.611   7.512   8.895 -0.0325  0.0515 -0.1053
 7969PP      PP18073  11.358   5.964   9.200 -0.2395  0.0518 -0.1149
 7970PP      PP18074   5.648   4.433   9.303  0.0058 -0.0252  0.0795
 7971PP      PP18075  11.985  13.790   3.990  0.1431 -0.0726  0.1841
 7972PP      PP18076   5.772  14.221  11.874  0.1973  0.1872 -0.0997
 7973PP      PP18077   2.140  11.134   3.945 -0.0603  0.3674 -0.3643
 7974PP      PP18078  14.724  15.416   3.278  0.2855  0.0054  0.3514
 7975PP      PP18079   9.888   3.567   2.649  0.1557  0.0824  0.0425
 7976PP      PP18080  12.535   3.171   2.829  0.1411  0.3522  0.0460
 7977PP      PP18081   7.541   9.666   0.112  0.2622 -0.1746  0.4883
 7978PP      PP18082   8.139   7.702   0.386 -0.1025 -0.0651  0.0561
 7979PP      PP18083  14.868   1.616  12.411  0.0560 -0.3558 -0.0836
 7980PP      PP18084  13.437  15.534  11.006 -0.1695  0.0033  0.0650
 7981PP      PP18085  14.586  12.461   1.991  0.0495 -0.0642  0.1928
 7982PP      PP18086   9.565  11.777   4.395 -0.1198 -0.0480  0.0935
 7983PP      PP18087   1.591  10.493  12.230 -0.1303 -0.0090  0.1287
 7984PP      PP18088  10.681  15.745   9.961 -0.1399 -0.1546 -0.0433
 7985PP      PP18089  10.372  15.193   4.709 -0.0723 -0.0734  0.1200
 7986PP      PP18090  15.230   5.500   9.206  0.0375 -0.0736  0.1018
 7987PP      PP18091   9.988   7.450   2.685 -0.0932 -0.2002  0.0208
 7988PP      PP18092  12.170   7.764  11.220  0.2134 -0.4057  0.1505
 7989PP      PP18093  13.981   9.528   0.706 -0.1188  0.2677 -0.0219
 7990PP      PP18094   3.557  10.567  10.455  0.2840  0.0751 -0.1407
 7991PP      PP18095   9.303  11.745   1.266 -0.2164 -0.0139 -0.1719
 7992PP      PP18096   5.187  14.060  12.401 -0.1071 -0.3974  0.1807
 7993PP      PP18097   3.820  13.921   4.531 -0.4819 -0.1819  0.1339
 7994PP      PP18098  12.066   3.347   8.958 -0.1586  0.0121 -0.2250
 7995PP      PP18099   3.693   3.857   9.717  0.0470 -0.0444  0.2520
 7996PP      PP18100   1.465   9.236   3.606  0.0452 -0.0739  0.2157
 7997PP      PP18101   6.322   4.325   9.812 -0.2288  0.0944 -0.0287
 7998PP      PP18102  12.542   8.224  10.231 -0.2042 -0.2721  0.0819
 7999PP      PP18103   0.722  12.120   3.680  0.0966  0.0145 -0.0702
 8000PP      PP18104  10.455  13.384   1.264 -0.3078 -0.3210  0.0040
 8001PP      PP18105   0.166   4.769   3.659 -0.2243  0.0598  0.0657
 8002PP      PP18106   5.456   6.051   8.750  0.1036 -0.0646  0.1972
 8003PP      PP18107  14.092   7.663   0.140  0.0868  0.2373  0.2922
 8004PP      PP18108  15.001  15.422   1.323  0.1521 -0.2579 -0.2957
 8005PP      PP18109   4.650   2.389   0.610  0.2942 -0.0762  0.0659
 8006PP      PP18110  11.983   3.520  11.911 -0.0898  0.1866 -0.0698
 8007PP      PP18111  10.240   9.291   8.976 -0.0514 -0.2608 -0.0126
 8008PP      PP18112  10.161  10.974   2.989 -0.0477 -0.2247 -0.1476
 8009PP      PP18113  13.963   7.193  10.207 -0.1852  0.2056 -0.1859
 8010PP      PP18114   7.632  15.886   2.114  0.3230 -0.0346 -0.0154
 8011PP      PP18115   1.490   5.307   9.591 -0.2081 -0.3426 -0.0296
 8012PP      PP18116  13.259   3.994   8.466 -0.0902 -0.2088  0.2289
 8013PP      PP18117  13.698  12.864   4.545  0.0184  0.0129 -0.0666
 8014PP      PP18118   6.905   5.973  11.040 -0.3447  0.1452  0.0601
 8015PP      PP18119   2.289   4.118  13.331  0.1678  0.3329  0.0111
 8016PP      PP18120   3.681   9.368  13.107  0.3285 -0.1407  0.1560
 8017PP      PP18121   0.314   8.827  11.679 -0.0748 -0.1033  0.0501
 8018PP      PP18122   7.612   4.465  10.443  0.1564  0.2736 -0.4755
 8019PP      PP18123  10.539  15.761   3.052  0.1931 -0.0061 -0.0201
 8020PP      PP18124  10.752   8.259   1.598  0.0528 -0.0402 -0.0188
 8021PP      PP18125  14.854   7.519   9.717 -0.0630  0.4892  0.1338
 8022PP      PP18126  15.879  11.207  11.885  0.3303  0.1337  0.2151
 8023PP      PP18127   1.548  15.138   9.669  0.1342  0.2253  0.0703
 8024PP      PP18128   7.604   3.214   0.977  0.3115 -0.0615  0.2935
 8025PP      PP18129   2.665   8.119  10.756  0.1435  0.2113  0.0443
 8026PP      PP18130   9.842  10.662   3.368  0.2610  0.0325  0.1095
 8027PP      PP18131   0.507   0.831  10.198  0.0410  0.1461  0.2322
 8028PP      PP18132  11.218  12.727  12.403  0.2627 -0.4594  0.3390
 8029PP      PP18133  12.946  10.720   9.604  0.0792 -0.2306  0.1008
 8030PP      PP18134   6.234   5.784  13.036  0.0022  0.2688  0.0160
 8031PP      PP18135  15.246   7.065  13.400  0.4486 -0.3162 -0.1154
 8032PP      PP18136   2.273  14.993   2.652  0.0258  0.0058 -0.0691
 8033PP      PP18137   3.216  10.094  10.311 -0.2498  0.0986  0.0195
 8034PP      PP18138  14.618   0.279  12.649  0.1273  0.1399  0.3065
 8035PP      PP18139   8.215   5.121   2.723 -0.3741 -0.1226 -0.1821
 8036PP      PP18140  13.689   3.412  10.565  0.2133 -0.2740  0.0124
 8037PP      PP18141   2.334  14.585   9.974 -0.2310 -0.1383 -0.0974
 8038PP      PP18142  13.684   8.316  10.716  0.2533 -0.0084  0.3636
 8039PP      PP18143  14.851  14.967   1.171  0.2552 -0.1475  0.1220
 8040PP      PP18144  13.703  12.867   0.769  0.2321  0.1726 -0.1137
 8041PP      PP18145   5.301   5.909   1.986  0.1544 -0.0391 -0.1091
 8042PP      PP18146   7.473   6.866   0.292  0.0858 -0.0475  0.1889
 8043PP      PP18147  14.859   2.872   3.502 -0.1520 -0.0461 -0.3094
 8044PP      PP18148  12.241   0.960  12.238  0.0305  0.2981  0.1051
 8045PP      PP18149  13.353   8.063   9.642 -0.3430 -0.1088 -0.0132
 8046PP      PP18150   1.566  11.838   9.671 -0.2002 -0.0133  0.0129
 8047PP      PP18151   0.242  14.378  12.561 -0.1043  0.1517 -0.1601
 8048PP      PP18152   8.749  13.146   1.097  0.1004 -0.2085  0.0653
 8049PP      PP18153  14.103   5.506   0.170 -0.1799  0.1235 -0.1276
 8050PP      PP18154  12.239  11.872  12.943  0.0176  0.2072  0.2201
 8051PP      PP18155  14.864  15.146   2.269  0.2597 -0.0987  0.2293
 8052PP      PP18156   1.293   8.543   2.388 -0.0279 -0.1063  0.0025
 8053PP      PP18157   4.171  11.628   1.782  0.1089  0.0377  0.1270
 8054PP      PP18158   9.879  12.317   1.850 -0.0214 -0.4121  0.1141
 8055PP      PP18159   0.188   5.603  10.945  0.3511  0.0808  0.0434
 8056PP      PP18160   9.038  14.414   1.340  0.0976  0.0200  0.0206
 8057PP      PP18161   9.450  10.972  10.307 -0.0329 -0.0421  0.3047
 8058PP      PP18162  12.436  10.745   8.903  0.0627 -0.0800 -0.0994
 8059PP      PP18163   1.451   9.328   2.122  0.2082  0.1872  0.0030
 8060PP      PP18164  11.426   7.806   1.173  0.0460 -0.0182  0.0249
 8061PP      PP18165   5.173   1.665   0.218 -0.1763 -0.0682 -0.0358
 8062PP      PP18166   6.145   3.883   3.911  0.1236  0.2480  0.1693
 8063PP      PP18167  11.330   7.863   3.393  0.0707 -0.0963  0.1788
 8064PP      PP18168  12.355   2.033   3.665  0.3301  0.1033  0.2259
 8065PP      PP18169   5.586   1.391   9.400  0.0013  0.0788 -0.1269
 8066PP      PP18170   0.789   5.320  10.932 -0.0730  0.2181 -0.3198
 8067PP      PP18171   1.221   2.321   2.525  0.1092 -0.1922  0.2082
 8068PP      PP18172   4.491  10.242   6.272 -0.0124  0.2932 -0.0348
 8069PP      PP18173   5.738   7.051   4.206 -0.1024 -0.2031  0.1914
 8070PP      PP18174  11.921  15.377   4.663 -0.0451 -0.2594  0.2127
 8071PP      PP18175  11.637   2.718  12.718  0.1324  0.2042  0.1749
 8072PP      PP18176  11.235   1.838   9.131 -0.0812 -0.3298  0.0749
 8073PP      PP18177   9.251   3.815   9.396 -0.2002  0.0320  0.0360
 8074PP      PP18178  12.246  15.748  12.142  0.1441  0.1758  0.2873
 8075PP      PP18179  14.367  11.295   1.819 -0.0861 -0.0828  0.0257
 8076PP      PP18180   1.957  13.178  13.298  0.1141  0.0797  0.0906
 8077PP      PP18181   5.603  15.633   0.803 -0.2092  0.0135 -0.2650
 8078PP      PP18182   7.974   3.028   8.729  0.1072 -0.0286  0.1198
 8079PP      PP18183   4.163   3.092   2.560  0.0126  0.3497  0.1315
 8080PP      PP18184   9.478   9.744   3.430 -0.0402 -0.1181 -0.2937
 8081PP      PP18185   5.435   4.533  11.140 -0.0489 -0.1194 -0.3321
 8082PP      PP18186   3.329  11.870  12.130  0.0444  0.3360  0.1440
 8083PP      PP18187   2.103  15.579   1.939 -0.3178 -0.2097 -0.4304
 8084PP      PP18188   9.932   0.171   1.592 -0.0570  0.2400  0.0255
 8085PP      PP18189  15.878   4.829  12.491 -0.2594 -0.3055 -0.4282
 8086PP      PP18190   3.263   7.294   1.692  0.0331 -0.2787  0.0862
 8087PP      PP18191   0.046   2.583   9.966 -0.0026  0.2147 -0.0205
 8088PP      PP18192  13.700  11.875   0.273  0.1469 -0.0037  0.0368
 8089PP      PP18193  14.517   8.894   3.791 -0.0246 -0.1022 -0.3340
 8090PP      PP18194  12.727  11.928  13.055  0.0559 -0.1206 -0.0159
 8091PP      PP18195  15.064   5.506  11.644  0.1842 -0.3574  0.0982
 8092PP      PP18196   5.713  10.559   2.873 -0.2684 -0.1007  0.3019
 8093PP      PP18197  14.747   3.785   0.401  0.0720 -0.2142  0.0951
 8094PP      PP18198   0.014  12.770   9.030 -0.0462 -0.0723  0.1295
 8095PP      PP18199   1.922   8.533   9.321 -0.0806 -0.2148  0.1063
 8096PP      PP18200  14.758   0.685   0.472 -0.0606  0.0026  0.3148
 8097PP      PP18201  13.104   3.796  11.209 -0.1168  0.3291 -0.0509
 8098PP      PP18202   9.971   5.332   1.946  0.0743 -0.2093 -0.1151
 8099PP      PP18203   8.049   8.564   1.043  0.1387  0.2228  0.1057
 8100PP      PP18204  10.384   9.962  11.167 -0.0565 -0.0714 -0.0852
 8101PP      PP18205   0.031  14.581   0.123  0.1518  0.2084 -0.0793
 8102PP      PP18206   8.833   4.312  11.141  0.2864 -0.1804  0.1889
 8103PP      PP18207  10.180  15.299   3.808 -0.0664  0.0041 -0.0564
 8104PP      PP18208  15.111   3.352  11.026 -0.0336  0.0184 -0.0124
 8105PP      PP18209  11.773   7.493   8.769  0.2398 -0.0760  0.1751
 8106PP      PP18210   1.225  15.142   0.655 -0.1260 -0.2256  0.1709
 8107PP      PP18211   9.655   7.782   9.308 -0.0010  0.1438 -0.0378
 8108PP      PP18212   4.293   9.910   1.312 -0.0982  0.0552  0.4050
 8109PP      PP18213  15.361   9.387   4.148  0.0847  0.0988 -0.1035
 8110PP      PP18214   4.986   5.837  11.833 -0.1664  0.2576 -0.0303
 8111PP      PP18215   8.305   7.907  11.699  0.1323  0.0517 -0.3191
 8112PP      PP18216   4.155   3.061  10.139 -0.4137 -0.1230 -0.1387
 8113PP      PP18217  11.772   5.434   9.582 -0.1784  0.0760 -0.2009
 8114PP      PP18218   5.936   1.001   2.117  0.1203  0.1265 -0.0956
 8115PP      PP18219  11.856   1.441   3.692  0.1675  0.0239  0.0298
 8116PP      PP18220   9.531   4.958   0.102 -0.2313 -0.3373  0.1772
 8117PP      PP18221   8.274  15.324  10.172  0.0217 -0.1885 -0.1362
 8118PP      PP18222   9.997   9.716  11.318 -0.0949 -0.2418  0.3880
 8119PP      PP18223  11.254   7.648   9.739 -0.0611  0.0709  0.0392
 8120PP      PP18224  11.171   9.367   3.664 -0.0680  0.1172 -0.0670
 8121PP      PP18225   8.258  13.592   1.782  0.0015  0.0703  0.1809
 8122PP      PP18226   6.625   5.418  11.775  0.0747 -0.0511  0.1086
 8123PP      PP18227   5.212   5.067  11.120  0.0333  0.1464  0.1845
 8124PP      PP18228   0.330  11.429   2.381 -0.2095 -0.1264  0.1808
 8125PP      PP18229   6.093  15.745   8.549  0.2504 -0.1454  0.0932
 8126PP      PP18230   7.330   0.561   0.026 -0.0137 -0.1534  0.2619
 8127PP      PP18231  10.343   7.433   1.040 -0.1343 -0.1440  0.2783
 8128PP      PP18232   1.884   4.056   1.690  0.4066 -0.1511  0.2193
 8129PP      PP18233   2.953   6.449  11.235 -0.0424 -0.1754  0.0401
 8130PP      PP18234   0.693   2.443  10.169 -0.1626 -0.2106 -0.4197
 8131PP      PP18235  12.011  14.895   9.083 -0.0312 -0.0276  0.1087
 8132PP      PP18236   6.292   1.067  13.458 -0.2264  0.0915 -0.1506
 8133PP      PP18237  12.984   8.976  10.301 -0.0654  0.0723 -0.4298
 8134PP      PP18238  11.778   8.663  12.602 -0.1440  0.3163  0.1972
 8135PP      PP18239   6.507   0.176   2.624  0.1186  0.3566 -0.1216
 8136PP      PP18240   6.365   0.860   0.869  0.0462 -0.1080 -0.0010
 8137PP      PP18241   2.447   9.638   1.197 -0.0445 -0.0785 -0.0191
 8138PP      PP18242  15.123   2.846   9.109  0.2719 -0.2318 -0.2163
 8139PP      PP18243   1.009   9.158   0.849  0.0591  0.2204  0.2953
 8140PP      PP18244  11.065  13.319   0.611 -0.2389  0.0150 -0.1460
 8141PP      PP18245  13.554   9.972  11.282 -0.2467  0.0838 -0.1841
 8142PP      PP18246   6.899   9.052   2.276  0.0495  0.3525 -0.2734
 8143PP      PP18247  12.658  11.012   9.909 -0.1366 -0.0917  0.2431
 8144PP      PP18248   6.491   3.018  13.287 -0.1777 -0.2598  0.0051
 8145PP      PP18249   9.336  12.825   9.844 -0.2792  0.0217 -0.3239
 8146PP      PP18250   8.383   7.621  10.375 -0.2463  0.1922  0.1212
 8147PP      PP18251  13.703  13.292   3.365  0.1578  0.0717 -0.3227
 8148PP      PP18252   0.577  15.748  10.855 -0.0679  0.2202  0.1522
 8149PP      PP18253  13.247   9.739   1.216 -0.0418  0.0901 -0.2533
 8150PP      PP18254   8.998   3.091   2.207 -0.1591 -0.0218 -0.0440
 8151PP      PP18255   0.629   9.452   9.186  0.2788 -0.0321 -0.2520
 8152PP      PP18256  14.168   0.107  13.023 -0.0858  0.2164 -0.0880
 8153PP      PP18257   3.005   2.191  10.794  0.1132  0.1117 -0.0853
 8154PP      PP18258   3.673   7.217  11.432 -0.1807  0.1650  0.0048
 8155PP      PP18259  13.425   1.335   2.351 -0.2055 -0.3984  0.0496
 8156PP      PP18260   4.066   6.987   1.446  0.0018  0.1802  0.1825
 8157PP      PP18261  14.487   2.026   8.890 -0.0086 -0.0283  0.2885
 8158PP      PP18262   1.195  10.811  12.565 -0.0961  0.0018  0.3405
 8159PP      PP18263   3.001   8.429   8.856  0.1897  0.0631 -0.2262
 8160PP      PP18264  15.877  12.154  13.413 -0.0456 -0.2010 -0.2310
 8161PP      PP18265  10.724   2.572   1.695 -0.1116  0.2133  0.0951
 8162PP      PP18266   5.889   2.455   2.630 -0.1322 -0.0904  0.4994
 8163PP      PP18267  11.906   5.261   7.265 -0.0938  0.3573  0.1182
 8164PP      PP18268  14.314   5.536  13.195  0.0949  0.0716  0.1636
 8165PP      PP18269  10.338   0.785   3.964 -0.3726 -0.0516  0.1198
 8166PP      PP18270   8.303   6.452   8.907 -0.0436  0.0708  0.0259
 8167PP      PP18271   3.294   9.144  12.854  0.0231 -0.1243  0.1192
 8168PP      PP18272   2.985   6.272   1.718 -0.1812 -0.0955  0.1861
 8169PP      PP18273   0.286   9.285   3.046  0.0357  0.0019 -0.3810
 8170PP      PP18274   7.411  13.402  11.227 -0.1265 -0.0873 -0.0099
 8171PP      PP18275  10.235   1.284  11.293  0.2630 -0.2227  0.2869
 8172PP      PP18276   8.265   4.159   3.355 -0.0282  0.2583  0.1491
 8173PP      PP18277   1.358  14.554  12.210 -0.1160 -0.0164 -0.1114
 8174PP      PP18278  12.506   5.377  12.934 -0.4857  0.2522  0.1340
 8175PP      PP18279   7.668  14.991  10.777 -0.4708 -0.0065 -0.0178
 8176PP      PP18280  13.063  14.751   4.132 -0.1282 -0.1826 -0.0133
 8177PP      PP18281   8.448  15.587   1.989 -0.0528 -0.0718  0.1238
 8178PP      PP18282  13.557  12.575   2.189  0.4445 -0.0561  0.0445
 8179PP      PP18283   9.067   8.252   2.082  0.0984 -0.0966  0.1668
 8180PP      PP18284   9.931  13.286   1.271 -0.1629  0.1849 -0.2181
 8181PP      PP18285   9.346   1.680   5.411 -0.1505  0.2228  0.0556
 8182PP      PP18286  11.857  12.764   9.732  0.0376  0.1883 -0.1887
 8183PP      PP18287   8.252   8.165  12.144 -0.1116 -0.2779 -0.1642
 8184PP      PP18288   6.147   4.801  13.273  0.0602  0.4474  0.0123
 8185PP      PP18289  15.237   1.387   1.719 -0.1860  0.1041  0.0918
 8186PP      PP18290   4.800   9.190   0.732  0.1363 -0.0437  0.0040
 8187PP      PP18291  10.979  14.571  13.143 -0.0847 -0.1699  0.0122
 8188PP      PP18292  14.934   5.135   3.664 -0.1762  0.2531  0.0525
 8189PP      PP18293  13.211  15.384   3.325  0.0257  0.2201  0.1294
 8190PP      PP18294  11.280   8.936   9.981  0.1400  0.0203 -0.0381
 8191PP      PP18295   3.406  10.332   0.577 -0.2165  0.1171  0.3886
 8192PP      PP18296   9.820  12.755   9.809  0.0855  0.1526  0.1485
 8193PP      PP18297   9.288  14.790   0.430  0.0683  0.2244 -0.1492
 8194PP      PP18298   1.101   8.507   4.005  0.0022 -0.0809 -0.0061
 8195PP      PP18299  12.991   0.084  10.926 -0.1901 -0.2590 -0.0022
 8196PP      PP18300   9.483  12.312  10.347  0.0182  0.1759  0.0253
 8197PP      PP18301   0.972   8.295   3.524  0.2199 -0.2641  0.0835
 8198PP      PP18302   8.908   5.651   8.577 -0.1538 -0.0378  0.0255
 8199PP      PP18303   4.840   8.538   3.872 -0.2299 -0.1709 -0.0993
 8200PP      PP18304   1.168  10.682  12.087 -0.0099  0.2310  0.3867
 8201PP      PP18305   9.755   8.335  11.539  0.0290 -0.1266  0.3053
 8202PP      PP18306  11.126   2.516  12.570 -0.1894  0.0266 -0.0574
 8203PP      PP18307   3.081   7.181   4.110  0.0409 -0.2972  0.1281
 8204PP      PP18308  13.941   0.053   0.502 -0.0561 -0.1366 -0.1572
 8205PP      PP18309   7.362  13.681   8.730  0.1375  0.0471  0.0305
 8206PP      PP18310   6.923  15.420   0.786 -0.2650 -0.0624 -0.0202
 8207PP      PP18311   3.414  15.371   1.259  0.1582  0.0772 -0.1323
 8208PP      PP18312   1.876   3.312   2.297 -0.0873 -0.2331  0.2704
 8209PP      PP18313   8.600   8.734   0.241 -0.0977  0.0662 -0.2451
 8210PP      PP18314   1.770   6.277   2.227  0.2650 -0.0822 -0.0699
 8211PP      PP18315   3.976   5.018  10.791 -0.1622  0.3728 -0.0377
 8212PP      PP18316  14.414   5.910   9.974 -0.0129  0.1876  0.0861
 8213PP      PP18317  14.330   0.439  12.266  0.0430 -0.1937  0.3279
 8214PP      PP18318   1.212  15.422   3.750  0.1588 -0.0572 -0.2239
 8215PP      PP18319   3.118   6.677   0.232 -0.3067  0.1325  0.2041
 8216PP      PP18320  11.627  10.457   2.897  0.2865  0.1878  0.0411
 8217PP      PP18321   0.882   0.456  10.947  0.1871 -0.2524  0.0266
 8218PP      PP18322   9.206   1.547   0.116  0.2612  0.0315  0.2328
 8219PP      PP18323   6.049   9.730   3.595 -0.3327 -0.4345 -0.1016
 8220PP      PP18324   1.655   9.113  10.480 -0.2512  0.2971 -0.2888
 8221PP      PP18325   6.297   6.725   2.491  0.0828 -0.0623 -0.0992
 8222PP      PP18326  15.500  13.230   9.906  0.4257  0.0367 -0.0829
 8223PP      PP18327   2.048   0.342   3.961  0.0176 -0.1769 -0.0370
 8224PP      PP18328   8.921   7.303  11.628 -0.0347 -0.1103  0.2097
 8225PP      PP18329  11.880   5.138  10.429  0.0068  0.1118 -0.0710
 8226PP      PP18330   9.928   1.547   0.009  0.0765  0.0675  0.1309
 8227PP      PP18331   3.334  15.195   2.929  0.0094  0.0317  0.1784
 8228PP      PP18332  11.343   5.197   9.005 -0.1323 -0.0389 -0.0851
 8229PP      PP18333   2.971  10.188   0.732  0.1139  0.1829 -0.1700
 8230PP      PP18334   5.179   7.605   0.307 -0.0902  0.0117 -0.0621
 8231PP      PP18335   5.544   8.516   0.614  0.1688 -0.0472  0.2602
 8232PP      PP18336   2.456   5.591   1.297  0.0061  0.2595 -0.0807
 8233PP      PP18337   7.906  13.153  11.153  0.1274  0.0359 -0.2205
 8234PP      PP18338   3.809   9.955   0.224 -0.0957  0.1662 -0.0231
 8235PP      PP18339   5.282  12.024  11.266  0.1301  0.0062 -0.2090
 8236PP      PP18340  13.971   8.954  13.444  0.0140 -0.1862  0.0520
 8237PP      PP18341   1.210   7.187   9.546 -0.3678 -0.0368 -0.0067
 8238PP      PP18342   1.064   4.136   4.093  0.0931 -0.0192 -0.0513
 8239PP      PP18343   6.180   3.501   1.641  0.2609 -0.0004  0.4699
 8240PP      PP18344   9.334   2.741   4.284  0.5482  0.0988  0.2441
 8241PP      PP18345   8.574   6.679  13.067 -0.3321  0.3308 -0.1009
 8242PP      PP18346  11.025   2.978   0.831  0.0263  0.4191 -0.2426
 8243PP      PP18347  14.171  10.630   0.402 -0.0919  0.2053  0.0648
 8244PP      PP18348   9.632  15.820   0.921 -0.1728 -0.1754  0.0387
 8245PP      PP18349   7.066  13.858   3.108 -0.0814  0.1749 -0.0325
 8246PP      PP18350   1.289  14.540  10.696  0.4049 -0.0562  0.2599
 8247PP      PP18351   2.201  12.028  11.453  0.0124  0.0820  0.2801
 8248PP      PP18352  13.654   5.954  11.808  0.0867 -0.1679 -0.0997
 8249PP      PP18353   6.009  11.617   0.928  0.0734  0.4144  0.0175
 8250PP      PP18354   5.390   9.620  12.851  0.0604 -0.1038  0.2375
 8251PP      PP18355   8.510   5.190   0.076  0.1624 -0.1516 -0.1758
 8252PP      PP18356  12.569   2.911  12.926 -0.1104  0.0768 -0.0442
 8253PP      PP18357   4.510   0.639   1.248 -0.2182  0.0613 -0.1439
 8254PP      PP18358  11.084   8.069   9.427  0.0193  0.0520 -0.0095
 8255PP      PP18359  15.135  14.714   0.585  0.0250 -0.2721 -0.0342
 8256PP      PP18360   3.276  15.642   2.563  0.2692 -0.2462  0.1143
 8257PP      PP18361   8.474  11.525   0.032 -0.1279 -0.1178 -0.0823
 8258PP      PP18362   4.493   7.087   4.447 -0.2429 -0.3211 -0.1427
 8259PP      PP18363   5.157  11.014   0.940 -0.1683 -0.1551 -0.2997
 8260PP      PP18364  12.496  13.942   3.830  0.2530  0.3351  0.0224
 8261PP      PP18365   9.270   5.017  13.168  0.4392  0.4173  0.0642
 8262PP      PP18366   2.441  14.374   4.410 -0.2959  0.3662  0.5115
 8263PP      PP18367   5.565   5.884  11.045 -0.1178  0.0214 -0.1273
 8264PP      PP18368  12.876  14.511   0.971 -0.0350  0.0498  0.0775
 8265PP      PP18369   8.457   7.556   2.565  0.1929  0.2013  0.0388
 8266PP      PP18370  15.029   9.242   3.803  0.1474  0.1796  0.1938
 8267PP      PP18371   3.223  13.132   1.438  0.0192 -0.2727 -0.0871
 8268PP      PP18372   6.954  12.194  12.869  0.1789 -0.0957  0.0972
 8269PP      PP18373   7.229  15.784   2.759 -0.1534 -0.1586 -0.0494
 8270PP      PP18374   0.997   2.997   0.155 -0.1593 -0.1241 -0.0105
 8271PP      PP18375  13.934   9.832  10.252 -0.3110 -0.1380  0.0046
 8272PP      PP18376  14.859  11.591   4.193  0.0033  0.0611 -0.0908
 8273PP      PP18377   2.940   4.715  13.360  0.3619  0.1121 -0.0557
 8274PP      PP18378   4.975   3.975   8.833 -0.2796  0.2198 -0.0460
 8275PP      PP18379   7.523   9.378   1.950 -0.0711  0.1153  0.3159
 8276PP      PP18380  15.568  15.088   3.736  0.0826 -0.0213  0.1417
 8277PP      PP18381   7.343   7.820  13.495  0.1899 -0.3963  0.2564
 8278PP      PP18382   0.260  14.599  10.466 -0.1139  0.1235  0.0354
 8279PP      PP18383  11.020  14.181   9.228 -0.0575  0.0760  0.1010
 8280PP      PP18384   4.201  13.964   1.818 -0.3309  0.0265 -0.2248
 8281PP      PP18385   8.097   3.407  12.785 -0.0934 -0.0442 -0.3617
 8282PP      PP18386   9.419  11.696  13.034 -0.2342  0.3133  0.1440
 8283PP      PP18387   3.450   5.116   9.951  0.0228  0.1470  0.1579
 8284PP      PP18388   8.576   6.627   2.523 -0.1653 -0.1330 -0.0302
 8285PP      PP18389   1.224   6.437  10.396  0.0139 -0.0634 -0.0022
 8286PP      PP18390   7.248   4.630   1.275  0.0385 -0.0620  0.0455
 8287PP      PP18391   4.446  12.469  12.965 -0.0185  0.0566  0.1278
 8288PP      PP18392   5.136   5.442   2.233 -0.1149  0.0803  0.2066
 8289PP      PP18393  14.166  14.689   1.871 -0.0277 -0.2833  0.0497
 8290PP      PP18394   3.925   7.550   2.706 -0.1468 -0.0356  0.3293
 8291PP      PP18395  11.355   0.704   9.173  0.1267 -0.0806  0.2499
 8292PP      PP18396  10.493   6.648  12.345 -0.0613  0.1452  0.1746
 8293PP      PP18397  15.453  12.261  12.252  0.2593 -0.1593 -0.0315
 8294PP      PP18398   2.004  15.265   0.345  0.0044  0.1449  0.3069
 8295PP      PP18399  12.749   4.756   8.756 -0.0292 -0.0666  0.2463
 8296PP      PP18400  12.100  15.329  12.379  0.1896  0.2055 -0.1328
 8297PP      PP18401  14.534   0.623  10.765 -0.1484 -0.0190 -0.1797
 8298PP      PP18402  10.342   6.496  10.287 -0.1518 -0.1509 -0.2008
 8299PP      PP18403   7.082  11.804   0.968 -0.2092  0.0936 -0.1508
 8300PP      PP18404  12.563   7.680   8.397 -0.2247 -0.1492 -0.1724
 8301PP      PP18405   0.976  12.469  13.429 -0.0815 -0.0867  0.3662
 8302PP      PP18406   6.159   0.566  13.383 -0.2051  0.1191 -0.2856
 8303PP      PP18407   8.434   0.937  12.434  0.0019  0.0687  0.1358
 8304PP      PP18408   6.344  11.829   3.121 -0.0097 -0.0423 -0.1577
 8305PP      PP18409   3.272  10.835  12.281  0.3496  0.2820 -0.2415
 8306PP      PP18410   4.619   2.005   2.796 -0.1429  0.2007  0.0953
 8307PP      PP18411   2.787   1.742  10.639  0.4619 -0.0110  0.0653
 8308PP      PP18412   2.834  15.024   9.735 -0.3042  0.0751 -0.1664
 8309PP      PP18413  13.980   3.072  10.402  0.0200  0.2768  0.0353
 8310PP      PP18414  13.660   9.288  12.391  0.1112 -0.1881 -0.1511
 8311PP      PP18415   9.386   7.579  13.378 -0.1686 -0.0508 -0.0497
 8312PP      PP18416   8.051   3.280   1.283 -0.1902  0.0366  0.0832
 8313PP      PP18417   2.523   5.481   2.888 -0.2486  0.0228 -0.0426
 8314PP      PP18418   0.769  11.255   2.215 -0.0637 -0.3051  0.0331
 8315PP      PP18419   6.779  15.206   0.079  0.0778 -0.1591  0.2670
 8316PP      PP18420  13.267   2.541   3.619 -0.3452 -0.0730  0.0820
 8317PP      PP18421  12.263   8.819   3.541  0.0736  0.1656  0.0744
 8318PP      PP18422   2.522   4.631   1.412  0.1650 -0.3572  0.0531
 8319PP      PP18423   4.547  14.694   8.973  0.0395 -0.0074 -0.1878
 8320PP      PP18424   8.973   3.458  11.880 -0.0018  0.0584 -0.1887
 8321PP      PP18425   3.524   9.813   2.974  0.1001 -0.0682 -0.0837
 8322PP      PP18426   9.843   6.746   3.233  0.1521 -0.1351  0.0226
 8323PP      PP18427  12.158  11.658   4.333 -0.5447  0.1740  0.3411
 8324PP      PP18428   6.283   2.842   9.295 -0.1217  0.0054  0.0743
 8325PP      PP18429   7.437   7.977   0.834  0.4016  0.1127  0.0311
 8326PP      PP18430   5.105   9.927   0.505  0.3444 -0.2275  0.1745
 8327PP      PP18431   5.915  15.266   2.855 -0.1635  0.0236 -0.1198
 8328PP      PP18432  11.793   1.625  13.337  0.0018  0.3560  0.2786
 8329PP      PP18433   9.062  15.244   3.879  0.0031  0.1456  0.1404
 8330PP      PP18434   9.907  14.255  10.519 -0.0676  0.1250  0.1824
 8331PP      PP18435   7.720   3.230   4.640 -0.2120 -0.1494  0.0941
 8332PP      PP18436   9.515   6.928   9.172  0.0214 -0.0833  0.2513
 8333PP      PP18437  11.879  10.424  12.219  0.1496  0.0330  0.0038
 8334PP      PP18438   8.329   1.172   3.842 -0.0536  0.2951 -0.1451
 8335PP      PP18439   9.777   6.354   0.840 -0.1186 -0.1194  0.2052
 8336PP      PP18440  14.759  14.075  11.620  0.1989 -0.3976  0.0617
 8337PP      PP18441   4.754   9.207   3.206  0.1011 -0.3330  0.2582
 8338PP      PP18442   9.076  10.362  12.013  0.0924 -0.1861 -0.0476
 8339PP      PP18443   5.286   5.857   4.200 -0.0514  0.2372 -0.0212
 8340PP      PP18444   5.498  14.796   0.925  0.1950 -0.2111  0.2184
 8341PP      PP18445  12.570   2.379  12.678 -0.2170 -0.1351  0.0046
 8342PP      PP18446  14.154   9.770   2.062 -0.0845 -0.1806  0.0956
 8343PP      PP18447   5.867  12.688   3.389 -0.1025 -0.0151  0.2889
 8344PP      PP18448   7.530   1.820   3.433  0.0578 -0.2510 -0.1038
 8345PP      PP18449   9.636  15.097  10.228 -0.1457 -0.0618 -0.0400
 8346PP      PP18450  13.943  13.260   0.601  0.1711  0.3456 -0.1941
 8347PP      PP18451   9.156   6.132  11.975  0.0704  0.1485  0.2599
 8348PP      PP18452   4.754  14.494  12.759  0.1410  0.0688 -0.0835
 8349PP      PP18453  11.525  10.969   2.957 -0.1459 -0.0800 -0.1394
 8350PP      PP18454   0.005  10.633  12.441  0.1901 -0.0683  0.0632
 8351PP      PP18455   7.537   8.552   0.847  0.1834  0.0588  0.2456
 8352PP      PP18456   5.186  10.371  10.184  0.1854  0.1983  0.1532
 8353PP      PP18457  12.194  10.762   4.204 -0.2049  0.1210 -0.1599
 8354PP      PP18458   1.291  13.366  11.299 -0.2998 -0.0607  0.0096
 8355PP      PP18459   5.276   1.973   4.448  0.0314  0.0254 -0.2609
 8356PP      PP18460   6.698   4.690  13.276  0.1032 -0.1532  0.0091
 8357PP      PP18461  15.645   3.441  11.807  0.0520 -0.1256 -0.1420
 8358PP      PP18462   7.160  14.180  11.274 -0.1765 -0.1123 -0.3899
 8359PP      PP18463  12.313   1.979   2.379  0.0921 -0.2846  0.0351
 8360PP      PP18464  10.696  10.678   3.547  0.2907 -0.0394 -0.0808
 8361PP      PP18465   7.362   5.946  10.361 -0.2218 -0.0596 -0.0589
 8362PP      PP18466   4.360   2.723   3.756 -0.1179 -0.0808 -0.0675
 8363PP      PP18467   5.985   1.697   3.880 -0.4058  0.2011  0.0837
 8364PP      PP18468   0.411  10.247   3.559 -0.2546 -0.1539  0.0839
 8365PP      PP18469   9.008  14.371   2.555 -0.1666 -0.1181  0.1976
 8366PP      PP18470   8.824   1.719   4.518 -0.1403 -0.1526 -0.1308
 8367PP      PP18471  14.761   8.381   9.310 -0.2935  0.1300  0.0442
 8368PP      PP18472   1.622   1.081  11.092  0.1911  0.3226 -0.2440
 8369PP      PP18473  12.829   3.589  12.262  0.1183  0.0219  0.1661
 8370PP      PP18474   4.740   3.017  12.899 -0.1812  0.2828 -0.1082
 8371PP      PP18475  11.454   2.258  10.363  0.0165 -0.0673  0.0927
 8372PP      PP18476   5.817   3.489  10.394 -0.1319 -0.2880  0.1737
 8373PP      PP18477  12.300  10.956   1.772 -0.0240 -0.3194  0.0763
 8374PP      PP18478  13.287   9.564  12.651  0.4245  0.0600  0.2282
 8375PP      PP18479   8.258   9.680  10.976  0.0126  0.0533  0.0095
 8376PP      PP18480  15.731   9.474   0.480  0.2128  0.1056 -0.0328
 8377PP      PP18481  15.292  13.922   2.196  0.0533  0.3017  0.5680
 8378PP      PP18482   2.105   7.520  12.562 -0.3089 -0.1158 -0.0579
 8379PP      PP18483   2.702  10.380   1.710 -0.1989 -0.3680  0.1552
 8380PP      PP18484  11.548  14.677  13.036 -0.1624 -0.4910  0.1779
 8381PP      PP18485  15.794   9.493   3.531  0.1009 -0.1041 -0.1405
 8382PP      PP18486   2.109   5.349  10.306  0.1450  0.4331 -0.0674
 8383PP      PP18487  10.705   1.318   4.002  0.0998  0.1739  0.1530
 8384PP      PP18488  11.409   6.145  11.240  0.0728 -0.3262  0.2452
 8385PP      PP18489   4.310  11.300  11.568 -0.0023 -0.1611 -0.4317
 8386PP      PP18490   9.633  10.691   1.495 -0.1201 -0.3142  0.0491
 8387PP      PP18491  10.355  13.595  13.098 -0.0928 -0.0199  0.2042
 8388PP      PP18492   2.271  10.124   3.531  0.0189 -0.0502 -0.0081
 8389PP      PP18493  13.718  13.672  12.966  0.0840 -0.1881 -0.1156
 8390PP      PP18494  11.388  15.132  13.142 -0.2980 -0.0762  0.0765
 8391PP      PP18495  10.731   3.560   1.756  0.3102  0.0951 -0.0839
 8392PP      PP18496  13.961   8.167   1.964  0.1734 -0.0622 -0.0110
 8393PP      PP18497   9.750   7.049  11.353  0.1030 -0.1933  0.0148
 8394PP      PP18498   6.918  11.097  10.597 -0.5274  0.1748 -0.3249
 8395PP      PP18499   9.338   7.573  10.413 -0.5077 -0.0462 -0.0285
 8396PP      PP18500   2.634   7.392   9.374  0.1478 -0.2595 -0.2171
 8397PP      PP18501  14.200  11.779   1.890  0.0556  0.1754 -0.0253
 8398PP      PP18502  10.762   2.090   1.848 -0.1352 -0.0336 -0.1653
 8399PP      PP18503   3.012  15.434   9.178  0.1188 -0.0788  0.1411
 8400PP      PP18504  15.164  13.262   9.565  0.2226  0.2743 -0.0961
 8401PP      PP18505   6.184   9.612   3.064  0.2977  0.1624 -0.3799
 8402PP      PP18506   8.730   2.321   3.693 -0.3587 -0.0162 -0.0988
 8403PP      PP18507   3.749  10.220   3.241 -0.0216 -0.0287 -0.1916
 8404PP      PP18508   8.445   2.635  12.270  0.0872 -0.0147 -0.2687
 8405PP      PP18509  12.123   5.927   1.945  0.3124  0.1114 -0.0349
 8406PP      PP18510   1.687   5.617  11.839 -0.0263 -0.1278 -0.0047
 8407PP      PP18511  12.299  15.449   2.748  0.1072 -0.3802  0.2756
 8408PP      PP18512  10.518   7.318   9.386  0.1199  0.0082  0.0696
 8409PP      PP18513  12.485   9.442   1.577 -0.0820 -0.0891  0.0987
 8410PP      PP18514   7.665   5.118   0.740  0.2383  0.0722  0.1330
 8411PP      PP18515   3.253   1.835   3.192  0.0971  0.0777  0.1975
 8412PP      PP18516  13.866   7.356  12.465  0.2583  0.0783 -0.1281
 8413PP      PP18517  11.987  10.935   0.832  0.0777  0.1971  0.1097
 8414PP      PP18518   2.950  13.777  10.859  0.0036  0.1194  0.2010
 8415PP      PP18519  13.947  15.279   3.282  0.1328 -0.5354 -0.1936
 8416PP      PP18520  13.671  11.563  11.436  0.3053  0.4369  0.2246
 8417PP      PP18521   1.114  11.678   9.636  0.1308  0.0089 -0.0006
 8418PP      PP18522   9.929  12.761  11.820 -0.1115 -0.0821  0.0702
 8419PP      PP18523   1.544   8.228  12.842 -0.0066  0.1396  0.0118
 8420PP      PP18524  14.772  13.965  10.076  0.0071  0.1541  0.3869
 8421PP      PP18525   9.324   2.671  10.427  0.1405 -0.0860 -0.0578
 8422PP      PP18526   3.095   8.763   1.936 -0.0203  0.2774 -0.3659
 8423PP      PP18527   1.277   5.056   1.113  0.1281 -0.2741  0.1283
 8424PP      PP18528   1.513   3.908   0.555 -0.0384 -0.1067 -0.0374
 8425PP      PP18529   2.368  14.297  10.633 -0.0143  0.2399  0.0818
 8426PP      PP18530  11.338   7.247  11.948  0.2791 -0.0285  0.0416
 8427PP      PP18531   4.211   1.030   1.232 -0.0513  0.3798 -0.0669
 8428PP      PP18532  12.551   4.256   3.041  0.0443  0.0864  0.0856
 8429PP      PP18533   1.008   5.191   2.362  0.2774 -0.2984 -0.4091
 8430PP      PP18534   0.173  10.992  10.526  0.0123 -0.3433  0.0413
 8431PP      PP18535   2.329   6.366   8.540  0.0567 -0.3283 -0.0241
 8432PP      PP18536   7.352   2.151  10.188  0.0566 -0.0048  0.0826
 8433PP      PP18537   4.054  12.561   0.612 -0.1021 -0.2028 -0.0397
 8434PP      PP18538  12.189   0.652   3.020 -0.0473 -0.0674  0.2111
 8435PP      PP18539   6.316   2.410  11.716  0.1216  0.2385 -0.3632
 8436PP      PP18540   5.095  14.335  10.960  0.1338 -0.0977  0.0720
 8437PP      PP18541  11.301   0.534   3.903  0.1764 -0.0721  0.0557
 8438PP      PP18542   0.659  14.608   0.063  0.0127  0.2247  0.1891
 8439PP      PP18543   2.890   9.619   5.873  0.2126  0.4796 -0.1413
 8440PP      PP18544   1.990   8.702   4.134 -0.0654 -0.4281  0.0079
 8441PP      PP18545   0.010  13.458   0.442 -0.0353 -0.0268 -0.3071
 8442PP      PP18546  12.362   4.677  12.005  0.1105 -0.2309  0.0207
 8443PP      PP18547   0.721   3.025   0.591  0.1073 -0.0642  0.1923
 8444PP      PP18548   7.195   1.202   1.302 -0.2257 -0.0729 -0.0881
 8445PP      PP18549  15.334   3.489   1.236 -0.2498  0.4147  0.2173
 8446PP      PP18550  13.895  11.987  10.609 -0.1535  0.4495  0.0322
 8447PP      PP18551   8.128   6.632   2.787 -0.0622 -0.1811 -0.1179
 8448PP      PP18552   5.786   7.026  10.099 -0.0286  0.0723  0.2036
 8449PP      PP18553   9.257   7.128   3.203 -0.0698 -0.2380 -0.0541
 8450PP      PP18554   4.562   6.056  11.675 -0.2814 -0.0707  0.0178
 8451PP      PP18555  14.656  10.658  11.622  0.1053 -0.0426 -0.1907
 8452PP      PP18556   0.952   6.847  10.682  0.1109  0.1232  0.2487
 8453PP      PP18557   7.646  14.424  11.604 -0.0239  0.0789  0.0496
 8454PP      PP18558  15.567   9.642   2.208 -0.0359 -0.0283  0.0541
 8455PP      PP18559   6.182   9.525   4.030 -0.3716 -0.2929  0.1654
 8456PP      PP18560   6.761  14.290  13.185 -0.2242  0.0789 -0.2441
 8457PP      PP18561  13.205   7.178   9.755 -0.0197  0.0623  0.2930
 8458PP      PP18562   3.938   1.183  12.049  0.1115  0.0705  0.0109
 8459PP      PP18563   0.889  11.461   2.689  0.0128 -0.2404 -0.1543
 8460PP      PP18564  10.860  15.545  12.242  0.3073 -0.0532 -0.1704
 8461PP      PP18565  13.805   4.256  10.267 -0.1707  0.0206  0.2773
 8462PP      PP18566   8.665   6.099  13.067 -0.2204 -0.0791  0.1112
 8463PP      PP18567   7.319   6.001   1.501  0.2363 -0.1431 -0.1623
 8464PP      PP18568  11.203  10.362  12.270  0.1386 -0.0416  0.2311
 8465PP      PP18569   8.872  11.357   0.529  0.0324  0.0425 -0.1780
 8466PP      PP18570  11.704   2.857  10.435  0.3355  0.0419  0.2119
 8467PP      PP18571   4.643  14.001   2.161  0.1896 -0.0527  0.1856
 8468PP      PP18572   1.671  14.268   9.357  0.1565 -0.0238 -0.1252
 8469PP      PP18573   6.211   9.079   0.591 -0.1470  0.2166  0.2696
 8470PP      PP18574  10.358  15.873   1.741  0.3755 -0.0632  0.0187
 8471PP      PP18575   2.905  13.065  13.388  0.0859 -0.3106  0.0244
 8472PP      PP18576   0.773   4.852   0.543  0.1278  0.0527  0.0590
 8473PP      PP18577   8.066   6.120   2.528  0.2048 -0.0281 -0.0817
 8474PP      PP18578   0.679  12.721  10.336  0.1508  0.0186 -0.1181
 8475PP      PP18579   0.010  15.795   1.683 -0.1012 -0.0266  0.0821
 8476PP      PP18580   0.179   5.695   0.078  0.0628 -0.0164  0.0371
 8477PP      PP18581   4.490   0.079   3.509  0.0377  0.2202  0.2420
 8478PP      PP18582  15.671   9.576  11.915  0.1707  0.1102  0.1390
 8479PP      PP18583  11.346  14.737  13.446  0.0072 -0.1474  0.0008
 8480PP      PP18584   3.132   1.582   9.957  0.1011  0.1065 -0.0068
 8481PP      PP18585   8.155   5.463   0.940  0.1746  0.1110  0.0983
 8482PP      PP18586   6.798   2.352  12.143  0.2339 -0.1439 -0.0634
 8483PP      PP18587  12.627  11.615   3.371  0.0560  0.0693 -0.1256
 8484PP      PP18588   5.799   5.893   1.184  0.3423  0.4274 -0.3091
 8485PP      PP18589  11.725  10.115   8.963  0.1026 -0.1728  0.1888
 8486PP      PP18590   1.145  14.348   9.087  0.0044 -0.4116 -0.1290
 8487PP      PP18591   2.740  11.564  12.058 -0.1325 -0.0121  0.3862
 8488PP      PP18592   2.205   7.658   1.089 -0.1010  0.1529  0.0562
 8489PP      PP18593  10.504   8.808   0.457  0.0671  0.3485 -0.2170
 8490PP      PP18594   8.065  13.190   8.902 -0.2687 -0.1654 -0.0655
 8491PP      PP18595   2.848  12.973  12.579 -0.1020 -0.0849  0.2748
 8492PP      PP18596   5.006   0.585  12.182  0.2997  0.1346 -0.0653
 8493PP      PP18597  10.362   4.061   2.074 -0.0171  0.3483  0.0775
 8494PP      PP18598   8.624   8.117   4.153  0.2931  0.0013 -0.2373
 8495PP      PP18599   2.934   0.685   2.535 -0.2234 -0.1339  0.0194
 8496PP      PP18600  10.267   9.186   1.503 -0.1743  0.2497 -0.5451
 8497PP      PP18601   5.824   1.641   1.301  0.4003  0.2476 -0.0479
 8498PP      PP18602  12.061  10.531   9.134 -0.2462 -0.2561  0.0956
 8499PP      PP18603  13.866  11.662  11.952 -0.2477  0.1902 -0.3407
 8500PP      PP18604   7.904  10.830  11.818  0.0994 -0.0086  0.5778
 8501PP      PP18605   5.247   9.540  12.065 -0.2801 -0.3356 -0.1177
 8502PP      PP18606   5.604  14.232   0.434 -0.0219  0.1626 -0.0730
 8503PP      PP18607  14.743   2.406   1.327 -0.4875  0.1857  0.1034
 8504PP      PP18608  13.954   5.176   8.568 -0.0607  0.0944  0.1179
 8505PP      PP18609   0.219   4.100   8.398  0.1874  0.0539  0.2174
 8506PP      PP18610  10.821   1.973  13.009  0.0285 -0.0906  0.0394
 8507PP      PP18611   3.855  12.626   3.217  0.2351 -0.3098 -0.2677
 8508PP      PP18612   7.755  14.060   9.507 -0.2557 -0.2319 -0.2294
 8509PP      PP18613  10.194   7.061  10.320  0.0028  0.1642  0.3301
 8510PP      PP18614   8.887  10.706  11.155  0.2242  0.3935 -0.2800
 8511PP      PP18615   4.190   7.048   8.665  0.1830  0.0358 -0.0146
 8512PP      PP18616   7.101   3.105   1.664 -0.4110  0.0529  0.4185
 8513PP      PP18617   5.991  15.534   9.213 -0.1422  0.0368  0.0989
 8514PP      PP18618   9.743  14.207   3.032 -0.1456 -0.0434  0.0440
 8515PP      PP18619  12.789   2.189  10.911  0.1655  0.0099  0.3111
 8516PP      PP18620   5.446   3.378   2.160 -0.2535 -0.1058  0.1819
 8517PP      PP18621  11.818  12.333  10.635  0.0350  0.1087  0.2652
 8518PP      PP18622   5.847   3.132   1.869 -0.1779 -0.1323 -0.1660
 8519PP      PP18623  13.222   8.232  12.393  0.4283 -0.2578 -0.1506
 8520PP      PP18624   6.023   4.403   3.558  0.0184 -0.1358 -0.0586
 8521PP      PP18625   2.525   2.468  11.691  0.3132 -0.0470  0.0697
 8522PP      PP18626  12.986  13.273   9.419 -0.0055  0.3123 -0.2252
 8523PP      PP18627   2.273   2.950   2.993  0.0619 -0.0916 -0.4210
 8524PP      PP18628   0.695   6.773  11.471  0.0165  0.1794  0.0810
 8525PP      PP18629   4.890   0.834   2.988  0.3038 -0.0357  0.1747
 8526PP      PP18630   4.089   8.036   9.785 -0.0185 -0.0731  0.0129
 8527PP      PP18631   2.543   9.830   2.785  0.2336  0.1883  0.0680
 8528PP      PP18632   4.436  11.437   0.511 -0.0661  0.2446 -0.1524
 8529PP      PP18633   8.860  15.387   3.406 -0.2467  0.0147 -0.2051
 8530PP      PP18634  12.897   5.108  10.638 -0.3941  0.0704  0.1566
 8531PP      PP18635  14.494   0.271   1.675  0.1410 -0.2076 -0.1154
 8532PP      PP18636   2.559   7.549  12.881 -0.1260  0.2263  0.2858
 8533PP      PP18637   7.093  13.515   0.354 -0.0707 -0.0208  0.0716
 8534PP      PP18638  10.444   5.737   9.140  0.1965  0.0669  0.0591
 8535PP      PP18639  13.158   6.283  12.499  0.1603 -0.2231  0.1187
 8536PP      PP18640   2.636   2.036  13.153  0.1507 -0.0419  0.2103
 8537PP      PP18641   4.494   7.157   9.881  0.0926  0.0653 -0.0448
 8538PP      PP18642  12.228   3.140  10.454  0.3508  0.0559 -0.2896
 8539PP      PP18643   1.585  13.796  13.218 -0.2471  0.0143  0.0804
 8540PP      PP18644  14.981   4.826  12.040  0.3217 -0.2390  0.2380
 8541PP      PP18645  13.998  13.233  11.038 -0.0837  0.1183  0.0528
 8542PP      PP18646   0.674   5.567  12.292  0.3000  0.1384  0.1139
 8543PP      PP18647   4.154  12.373  11.990 -0.0799 -0.2953 -0.0755
 8544PP      PP18648   1.363  10.182   0.457 -0.2960 -0.2331 -0.0037
 8545PP      PP18649  13.625   4.938   8.869  0.0132 -0.0846  0.1081
 8546PP      PP18650   5.833   0.160   0.307 -0.3427  0.0595 -0.0195
 8547PP      PP18651   7.145  15.411   4.115  0.3851 -0.1969 -0.1479
 8548PP      PP18652   1.723   4.938   4.572  0.1529 -0.0891  0.1428
 8549PP      PP18653  14.608   2.270   0.444  0.2710  0.0441 -0.1743
 8550PP      PP18654   1.216   3.219   0.569 -0.0141  0.1813 -0.0954
 8551PP      PP18655   2.476   3.317   1.990 -0.0646 -0.0599  0.2324
 8552PP      PP18656   1.331   9.184   4.062  0.3888  0.0622  0.2516
 8553PP      PP18657   9.073   6.100   3.911  0.0692  0.0013 -0.0829
 8554PP      PP18658   0.744  14.830  10.745 -0.0110 -0.1919  0.0591
 8555PP      PP18659   7.028   4.731   3.090 -0.1634 -0.2485  0.0337
 8556PP      PP18660  10.548   5.303   2.811 -0.0773 -0.0274  0.0124
 8557PP      PP18661   1.606  14.580   3.813  0.0416  0.1662  0.1021
 8558PP      PP18662   3.702   2.281   3.047  0.1564  0.3360 -0.3087
 8559PP      PP18663  14.746   9.175   0.258 -0.0900 -0.3009  0.1976
 8560PP      PP18664   9.705   3.056  10.254 -0.1660  0.0610  0.0640
 8561PP      PP18665  10.764  15.472   4.650 -0.0492 -0.1770 -0.1115
 8562PP      PP18666   8.587   1.501   1.918 -0.0009  0.3075  0.2131
 8563PP      PP18667  13.324  11.490   4.574 -0.1105  0.0322 -0.0516
 8564PP      PP18668  10.307   0.251   3.638  0.0680  0.0088 -0.1744
 8565PP      PP18669   8.228   0.335  10.286 -0.1324  0.1524 -0.1034
 8566PP      PP18670   2.055   7.324  12.988  0.3538  0.0281 -0.1735
 8567PP      PP18671  14.965  10.863   0.903  0.0006 -0.2497  0.1630
 8568PP      PP18672   4.701   1.224  10.237  0.1359 -0.0748 -0.0417
 8569PP      PP18673   3.281  14.964   4.020 -0.2764 -0.1701  0.0718
 8570PP      PP18674   6.726  11.514   8.191 -0.2260  0.2224 -0.0984
 8571PP      PP18675   8.536   9.205  10.755 -0.3557 -0.0401 -0.1832
 8572PP      PP18676  10.961  10.515   1.574 -0.4042 -0.0258 -0.2506
 8573PP      PP18677   9.274   8.552   2.453  0.1065 -0.0482 -0.2393
 8574PP      PP18678   2.137   6.939   0.931 -0.1298 -0.3190 -0.0956
 8575PP      PP18679   7.116   8.964   8.750  0.3421 -0.0948  0.1826
 8576PP      PP18680   4.720   8.304   9.341  0.1127 -0.2030  0.0658
 8577PP      PP18681  13.697   0.863  13.295 -0.0424  0.1821  0.3618
 8578PP      PP18682   3.160  10.700   2.433 -0.0400  0.1221  0.1202
 8579PP      PP18683   9.728   9.735   2.513  0.0947 -0.1642  0.2550
 8580PP      PP18684   7.690   7.221  11.037  0.0573 -0.0585  0.3106
 8581PP      PP18685  15.183   2.197  12.114 -0.1382 -0.0070  0.0038
 8582PP      PP18686   2.747   4.681   0.409  0.0534  0.0294 -0.0066
 8583PP      PP18687   9.445   0.593  11.800 -0.1708 -0.4022 -0.1181
 8584PP      PP18688   8.465   5.551  11.376 -0.0543  0.1004  0.0119
 8585PP      PP18689   9.760   3.803   1.307 -0.1270  0.1507  0.4869
 8586PP      PP18690   9.395   0.143   3.848  0.0561  0.1474 -0.1049
 8587PP      PP18691   9.256   8.388   0.262 -0.2762  0.0451  0.1600
 8588PP      PP18692   6.139   5.253   2.332 -0.0466 -0.1529 -0.0400
 8589PP      PP18693   5.704  14.820   4.053 -0.0698  0.0376 -0.0579
 8590PP      PP18694   4.900   2.594   1.829 -0.3860 -0.0850 -0.1692
 8591PP      PP18695   7.946   8.038   8.767 -0.0945 -0.0843 -0.2410
 8592PP      PP18696  14.742   4.263  12.897  0.1034 -0.1061  0.0368
 8593PP      PP18697   6.570   7.625  12.162 -0.2643  0.2476  0.1051
 8594PP      PP18698   6.484   7.725   1.346  0.1741 -0.1844 -0.1067
 8595PP      PP18699   5.208  10.157  13.379  0.0070  0.0043  0.4033
 8596PP      PP18700  12.525   1.381  11.118  0.1279 -0.1392  0.1951
 8597PP      PP18701   1.563   0.434   3.763  0.1712 -0.1200 -0.0017
 8598PP      PP18702   4.862   8.638  10.782 -0.1420  0.0304 -0.0159
 8599PP      PP18703   4.936  13.383   9.328 -0.1634  0.0574 -0.3064
 8600PP      PP18704  10.570   2.471  12.843  0.1138  0.4521  0.1732
 8601PP      PP18705   7.099   2.429   8.939  0.4814  0.2463  0.0431
 8602PP      PP18706  11.083   6.061   8.806  0.0340 -0.2263  0.0725
 8603PP      PP18707   9.403   6.620  11.726 -0.1479 -0.2577 -0.1426
 8604PP      PP18708   2.543   0.844   2.124  0.1137  0.1557 -0.0935
 8605PP      PP18709   4.220   6.556  12.518  0.0681 -0.0299 -0.1507
 8606PP      PP18710  14.966   1.162   9.592  0.0395 -0.0488  0.0576
 8607PP      PP18711   6.607  11.877  11.488  0.0202 -0.1710 -0.6860
 8608PP      PP18712   4.382   8.417   2.775 -0.0603 -0.1186  0.1286
 8609PP      PP18713   6.838   2.275   0.441  0.0964 -0.0677  0.0542
 8610PP      PP18714   0.666   9.833  13.211 -0.0472 -0.3925  0.0168
 8611PP      PP18715   3.390   6.972  12.917  0.0038 -0.2313  0.1132
 8612PP      PP18716  14.836  11.741  12.569 -0.0719  0.2446  0.2996
 8613PP      PP18717   9.838  10.314  11.083 -0.0416 -0.0475  0.0445
 8614PP      PP18718  14.937  12.409  11.297  0.2615 -0.1628  0.1094
 8615PP      PP18719   1.373  14.571   0.746 -0.0092 -0.0943 -0.0439
 8616PP      PP18720   5.459  13.450   1.556  0.1444  0.0735  0.2690
 8617PP      PP18721   0.599   7.368   1.765 -0.1518  0.1501 -0.0826
 8618PP      PP18722   3.536   8.185  11.910  0.1342  0.1600 -0.0198
 8619PP      PP18723   5.887   5.924   0.106  0.1980 -0.0102 -0.0361
 8620PP      PP18724   9.198   8.594  12.178  0.1770  0.1435  0.1084
 8621PP      PP18725   1.468   4.153   3.765  0.1519 -0.0027 -0.0481
 8622PP      PP18726   5.491  14.613   4.483 -0.4170 -0.2129 -0.0519
 8623PP      PP18727  10.335  11.112  11.350  0.2356 -0.2386 -0.1105
 8624PP      PP18728   4.551   4.133   1.089 -0.2956 -0.1526  0.0244
 8625PP      PP18729  10.362   1.111   2.657  0.1297 -0.0468  0.0693
 8626PP      PP18730   4.063   7.480   1.132  0.1783  0.0487 -0.1387
 8627PP      PP18731  12.856   9.693   2.710 -0.0725  0.1575 -0.0414
 8628PP      PP18732   6.653  12.602   3.002 -0.1438  0.1087  0.0379
 8629PP      PP18733   7.246   7.737   1.780 -0.2668  0.0372  0.1211
 8630PP      PP18734   1.434   4.194  10.310 -0.0902 -0.0347 -0.0233
 8631PP      PP18735  12.336  13.923   4.343  0.1848 -0.2763 -0.2263
 8632PP      PP18736   2.730   5.742  11.144 -0.4461  0.1444 -0.1408
 8633PP      PP18737   5.456  12.298   0.373  0.1362 -0.1992 -0.2886
 8634PP      PP18738   4.963  15.046   4.575  0.0135  0.0076 -0.0953
 8635PP      PP18739  11.710   2.468   0.845 -0.1603 -0.2636 -0.0873
 8636PP      PP18740   5.468   2.548  13.481  0.0785  0.1191  0.1912
 8637PP      PP18741  13.186   3.199  12.346 -0.0092  0.1105 -0.1720
 8638PP      PP18742  10.629  13.059   0.853  0.1299  0.0235 -0.1746
 8639PP      PP18743  12.322  10.197   1.986  0.2081  0.2693 -0.0514
 8640PP      PP18744   6.742   6.368  12.016  0.2072 -0.1828  0.1128
 8641PP      PP18745   6.961  15.306  10.192 -0.1069  0.1144 -0.2069
 8642PP      PP18746   5.424   3.432  11.638  0.1203  0.0868 -0.0713
 8643PP      PP18747  10.326   0.980   2.159  0.2761 -0.3013  0.0163
 8644PP      PP18748   7.524  10.723  11.020 -0.1718  0.2314  0.2185
 8645PP      PP18749  14.016   0.222  12.550 -0.0782  0.1819 -0.0857
 8646PP      PP18750   0.478   4.971   2.290 -0.0645  0.2654 -0.1605
 8647PP      PP18751  14.064  14.675  12.074  0.0969  0.2318 -0.0661
 8648PP      PP18752   1.640  15.008   0.439 -0.0526  0.1733 -0.1040
 8649PP      PP18753  11.411   5.087   8.387 -0.1515  0.1179 -0.2273
 8650PP      PP18754   4.754   2.902   9.513 -0.1184 -0.1944 -0.3303
 8651PP      PP18755   8.663  14.602   9.600 -0.1698  0.0040  0.1214
 8652PP      PP18756   9.445   1.647  11.198  0.0951 -0.1464  0.3660
 8653PP      PP18757  11.367   1.259   1.644 -0.1120  0.2549  0.0516
 8654PP      PP18758  10.691   9.972   9.568 -0.0777  0.0586 -0.2619
 8655PP      PP18759  11.016  11.279   2.939 -0.0906  0.0126 -0.2676
 8656PP      PP18760  15.560   2.639  11.221 -0.0643 -0.0614 -0.2091
 8657PP      PP18761  12.022   1.773  11.339  0.0966  0.3569  0.0586
 8658PP      PP18762   2.809   3.446  12.361 -0.2089  0.0957  0.0773
 8659PP      PP18763  14.455   9.043  13.247  0.0254 -0.4431  0.4274
 8660PP      PP18764  13.322   9.368   1.995 -0.2622 -0.1213  0.0829
 8661PP      PP18765  11.075   8.794   3.573  0.0038 -0.0717 -0.3060
 8662PP      PP18766   5.101   2.376   3.610  0.2030  0.0040 -0.0866
 8663PP      PP18767  13.225  15.460  11.517 -0.1165 -0.1696  0.0525
 8664PP      PP18768   8.342   9.362   2.213  0.2402 -0.5655  0.2624
 8665PP      PP18769   3.374  14.932   9.983  0.0077  0.0477 -0.1546
 8666PP      PP18770   3.804  15.002  11.598  0.0025  0.1094 -0.0466
 8667PP      PP18771   9.413   4.161   8.962  0.3210  0.1362  0.0687
 8668PP      PP18772   8.263   3.521   0.141  0.0996 -0.0713  0.0490
 8669PP      PP18773  11.652   2.223   9.304 -0.0223  0.0736 -0.0840
 8670PP      PP18774  15.283   6.824   8.012 -0.1716 -0.2145 -0.0356
 8671PP      PP18775   1.204   6.874   8.964 -0.2705  0.1741 -0.0488
 8672PP      PP18776  14.575  11.842   3.352 -0.1241 -0.3241 -0.0522
 8673PP      PP18777  11.549   4.749   0.779  0.1031  0.2009  0.1375
 8674PP      PP18778   3.367   7.386  12.558  0.2177 -0.0769 -0.0014
 8675PP      PP18779  11.511  15.131   5.052  0.0735  0.1593 -0.1729
 8676PP      PP18780  10.173   7.335  11.137  0.0155 -0.1833 -0.1347
 8677PP      PP18781  13.114   4.959   3.466 -0.1256  0.2571 -0.2453
 8678PP      PP18782  11.289   7.351   8.874  0.0984  0.0002 -0.2138
 8679PP      PP18783  13.924   8.351   3.351 -0.1267 -0.0138  0.2117
 8680PP      PP18784   9.021   4.746   0.993  0.1169  0.2925  0.1636
 8681PP      PP18785   5.019   6.665   2.818 -0.1617  0.0454  0.1878
 8682PP      PP18786   9.772   9.399   3.154 -0.3082  0.0783  0.1483
 8683PP      PP18787   2.833   3.164  11.277 -0.1179 -0.0683  0.0410
 8684PP      PP18788   8.827   1.292  10.767  0.0602 -0.0969 -0.0416
 8685PP      PP18789   9.916  15.213  13.267  0.0379 -0.1371 -0.0709
 8686PP      PP18790   6.367   5.945   1.733 -0.1574 -0.2271 -0.4055
 8687PP      PP18791   8.993  15.253  11.347  0.0811  0.2558  0.1079
 8688PP      PP18792  15.222   3.807   2.997 -0.0346  0.0547  0.3345
 8689PP      PP18793  15.876   2.584  12.099 -0.2090 -0.0646  0.0336
 8690PP      PP18794  14.184   9.901  10.795  0.1501 -0.0027  0.0568
 8691PP      PP18795   7.108   8.745  12.218 -0.0287  0.4079 -0.2059
 8692PP      PP18796   7.207  12.412  11.448  0.0090  0.1711 -0.1682
 8693PP      PP18797   2.975   3.484   1.445 -0.1222  0.0754 -0.1836
 8694PP      PP18798  13.059   1.413   9.519 -0.2157  0.0362 -0.0562
 8695PP      PP18799   5.342  11.547  13.196 -0.0084  0.1356 -0.0223
 8696PP      PP18800   7.358   4.278   9.201  0.0288 -0.1239 -0.1406
 8697PP      PP18801  13.778   8.562  11.513 -0.2453  0.1207  0.2496
 8698PP      PP18802   8.616   7.582   9.251 -0.2208  0.2503  0.2151
 8699PP      PP18803   6.668   7.651   2.695  0.0385 -0.0161  0.0282
 8700PP      PP18804   3.812   2.982   0.599  0.1290  0.1735 -0.0897
 8701PP      PP18805   4.804   8.984   2.215  0.0791 -0.0165 -0.0955
 8702PP      PP18806   8.020   0.560   0.354 -0.1137  0.1109 -0.1748
 8703PP      PP18807   2.196   1.182   4.781 -0.1732 -0.1625  0.0095
 8704PP      PP18808   4.619  11.981  12.921  0.0013 -0.1372  0.0044
 8705PP      PP18809   8.072   0.870   3.533  0.0052 -0.1834  0.1959
 8706PP      PP18810   6.062   4.675  10.003 -0.1330 -0.4443 -0.3533
 8707PP      PP18811   9.473   2.568  12.669 -0.1417 -0.0290 -0.1104
 8708PP      PP18812   5.207   0.910   2.544  0.2149  0.0092 -0.1012
 8709PP      PP18813   6.852   6.965   3.477  0.1804 -0.4758  0.0087
 8710PP      PP18814  15.639   3.978   0.934 -0.4231  0.0562 -0.2890
 8711PP      PP18815   2.880   5.898   2.757  0.0900  0.1808  0.0871
 8712PP      PP18816   0.489   1.205   8.714  0.1163  0.0854  0.0099
 8713PP      PP18817  12.440   6.378   1.322  0.3139 -0.0957  0.1648
 8714PP      PP18818   2.592   1.897  12.638 -0.2237  0.1994 -0.1306
 8715PP      PP18819   4.477  12.464   4.603  0.0778 -0.2439 -0.1624
 8716PP      PP18820   6.746  10.678   2.324  0.0756  0.1484 -0.1278
 8717PP      PP18821   8.328   6.772  13.480 -0.2344  0.1965 -0.1230
 8718PP      PP18822  14.421   8.124   2.133  0.0700  0.0913 -0.0858
 8719PP      PP18823   3.272   1.195   2.124  0.0526 -0.1493  0.0929
 8720PP      PP18824   0.804  14.220   0.914 -0.2841  0.1864  0.0546
 8721PP      PP18825   1.968   6.839   4.612 -0.1304  0.3973 -0.0910
 8722PP      PP18826  13.515  12.260   3.464  0.3160 -0.0671 -0.0120
 8723PP      PP18827   3.107   1.845   2.730  0.2167  0.0277 -0.1383
 8724PP      PP18828   1.537   9.340   0.848 -0.0503  0.1108  0.3237
 8725PP      PP18829   3.630   9.196  12.092  0.1429  0.3855 -0.2501
 8726PP      PP18830   7.080   6.851   2.833  0.1321 -0.1814 -0.1691
 8727PP      PP18831   1.012   2.305   1.002 -0.0058  0.1662 -0.0799
 8728PP      PP18832   7.778   6.710   1.517 -0.0604 -0.1196 -0.0274
 8729PP      PP18833   5.206   8.524   1.389 -0.0354 -0.0889  0.1775
 8730PP      PP18834   1.110  13.768   2.883 -0.1981 -0.1208  0.0767
 8731PP      PP18835   1.691   3.972   3.068  0.1072  0.2493 -0.0067
 8732PP      PP18836   3.494   0.599  13.207  0.1241  0.0444  0.0978
 8733PP      PP18837  12.045  15.583  11.082  0.1751  0.3257  0.0254
 8734PP      PP18838  10.771   3.549   3.205  0.3232 -0.1276  0.1476
 8735PP      PP18839  14.112   1.072  12.969  0.2233  0.1275  0.2437
 8736PP      PP18840   4.727  11.090  10.282  0.0253 -0.2304 -0.2029
 8737PP      PP18841   3.282   8.317   2.590 -0.1247  0.3215  0.1528
 8738PP      PP18842  14.202   1.925  11.813 -0.1288  0.4498  0.0983
 8739PP      PP18843   4.188   4.355  13.394  0.1041 -0.1351  0.0178
 8740PP      PP18844   9.187  10.638   1.660 -0.0192  0.2908  0.1425
 8741PP      PP18845  12.418  13.745  11.317  0.1857 -0.3705  0.1577
 8742PP      PP18846   9.248   8.417   8.640  0.2201 -0.2865  0.2289
 8743PP      PP18847   2.681   1.679  10.153  0.0363  0.3217  0.1023
 8744PP      PP18848   7.946   7.720   3.517  0.3192 -0.0378 -0.1085
 8745PP      PP18849  11.536  15.015   4.468 -0.0041  0.1838 -0.1011
 8746PP      PP18850   4.139   8.378  10.586 -0.3339 -0.0355  0.0170
 8747PP      PP18851   7.231   4.548   2.609  0.2803  0.1265  0.0190
 8748PP      PP18852   0.123   7.441   3.238  0.2395  0.1826  0.0761
 8749PP      PP18853   8.219   5.358  10.360  0.1238 -0.0263  0.0167
 8750PP      PP18854   8.429   4.106   0.791 -0.0882 -0.0154  0.0757
 8751PP      PP18855   0.125  12.759  12.834  0.2026  0.4004  0.0331
 8752PP      PP18856   2.493   0.682   3.785 -0.1029  0.0438  0.4182
 8753PP      PP18857   3.116   4.259   3.581  0.2219  0.2434  0.2096
 8754PP      PP18858  14.129   6.855   0.577 -0.1612  0.1539  0.3412
 8755PP      PP18859   7.536  10.637   4.395  0.0617 -0.1462 -0.1987
 8756PP      PP18860   4.728  14.744   3.853 -0.0623 -0.3209 -0.4216
 8757PP      PP18861   7.768   6.228  12.705  0.1833 -0.2017  0.0155
 8758PP      PP18862   6.271   2.948   3.987 -0.0308  0.2009  0.0442
 8759PP      PP18863   9.424   4.630   3.723  0.0295 -0.0393  0.1334
 8760PP      PP18864  11.278  15.661  10.230  0.0593  0.0821 -0.3338
 8761PP      PP18865   2.809  12.016   0.745 -0.0115 -0.0663  0.0849
 8762PP      PP18866  13.999  14.173  10.824  0.2272 -0.0596  0.1441
 8763PP      PP18867   2.745   4.558   9.741 -0.2019  0.0692 -0.0799
 8764PP      PP18868   9.145   8.223   2.773  0.3610  0.0207  0.0065
 8765PP      PP18869  11.960  11.589   2.602 -0.0693 -0.0235 -0.1881
 8766PP      PP18870   0.725   8.896  10.959  0.2653 -0.0559  0.0578
 8767PP      PP18871  13.500  14.963  10.151 -0.3018  0.0464 -0.0634
 8768PP      PP18872  10.123  15.468   2.997  0.1202  0.3078  0.0654
 8769PP      PP18873   6.531   1.114   3.675 -0.0413  0.2636 -0.1767
 8770PP      PP18874   4.411  15.747   1.209 -0.0221  0.0328 -0.1042
 8771PP      PP18875   2.730   2.546  10.063 -0.1666 -0.1968 -0.2651
 8772PP      PP18876  12.570   2.701  11.662  0.0864  0.1083 -0.0734
 8773PP      PP18877  15.291  14.553   4.730  0.2126  0.0443  0.1807
 8774PP      PP18878   8.717  15.648   0.623  0.0396  0.2758 -0.0565
 8775PP      PP18879  13.300  13.706  10.675 -0.2266  0.0196 -0.1089
 8776PP      PP18880   6.877  10.060   9.472  0.0275  0.0498 -0.1462
 8777PP      PP18881   3.165   8.567  11.348 -0.0903  0.3394 -0.2461
 8778PP      PP18882   4.998   5.511  12.370 -0.5037 -0.4230  0.1068
 8779PP      PP18883   1.360  14.380  11.721  0.2565  0.2374 -0.0392
 8780PP      PP18884  15.422  12.861   9.245 -0.2491 -0.2153 -0.2252
 8781PP      PP18885  13.840   6.533   8.946 -0.0553 -0.2316 -0.0398
 8782PP      PP18886   3.645   7.790   0.388  0.2947  0.1191  0.5338
 8783PP      PP18887   6.170  12.986   4.248 -0.0670 -0.1680 -0.0111
 8784PP      PP18888   8.095   4.508   0.626 -0.0306  0.2518  0.3349
 8785PP      PP18889  13.332  14.628   0.175 -0.1084  0.0127 -0.1008
 8786PP      PP18890   7.107  11.458   9.269  0.3497  0.0257  0.0450
 8787PP      PP18891   8.339  13.066  10.877 -0.1146 -0.0164  0.2378
 8788PP      PP18892   7.526  12.977   3.347  0.1349  0.0472  0.0397
 8789PP      PP18893   8.700  15.655   4.802  0.1859  0.0751  0.0044
 8790PP      PP18894  15.699   7.654   8.353 -0.0551  0.0598 -0.1673
 8791PP      PP18895  15.735   6.709   9.130  0.1552 -0.2224  0.0391
 8792PP      PP18896   3.445  15.567  12.310 -0.0830  0.0353 -0.0026
 8793PP      PP18897  11.314   8.658   1.471  0.2110 -0.0500  0.3000
 8794PP      PP18898  12.227   9.843   1.567 -0.2194  0.0573 -0.1192
 8795PP      PP18899   3.652   0.876  10.316 -0.2212  0.1938  0.2334
 8796PP      PP18900  14.570   6.095   1.285 -0.1075 -0.0491 -0.1424
 8797PP      PP18901   8.001   8.285   9.884 -0.0361  0.1213 -0.1296
 8798PP      PP18902  15.433  10.039   1.830  0.0695 -0.3370 -0.1420
 8799PP      PP18903   8.386  13.567  13.008 -0.4163  0.1307  0.0318
 8800PP      PP18904   4.972   9.000   4.403  0.1701  0.1332  0.0558
 8801PP      PP18905   9.638   4.874   9.539  0.4679 -0.2121 -0.0165
 8802PP      PP18906  11.952   8.664   3.119 -0.2421  0.1758 -0.0114
 8803PP      PP18907   9.690   6.368  10.062 -0.0995  0.0508 -0.1370
 8804PP      PP18908   5.107  13.945   0.081  0.1736  0.0983 -0.0249
 8805PP      PP18909   5.275   7.866   3.517 -0.1470  0.1224 -0.0252
 8806PP      PP18910   7.967  11.318   0.782 -0.1203  0.0610 -0.1770
 8807PP      PP18911   3.815  12.720   3.795  0.0762 -0.1401 -0.1008
 8808PP      PP18912   3.647  13.087   3.290 -0.1941  0.0032  0.1927
 8809PP      PP18913   2.492   1.298  10.693  0.0555 -0.1682 -0.0813
 8810PP      PP18914   1.132   7.069   2.539 -0.0341 -0.0257  0.1269
 8811PP      PP18915   7.337   9.294  13.342 -0.1597  0.1347 -0.0726
 8812PP      PP18916   5.036  11.590  11.223 -0.0782  0.0739 -0.0014
 8813PP      PP18917   8.562   2.096   2.852 -0.0223 -0.0172  0.1569
 8814PP      PP18918   5.263  14.759   3.624 -0.4425  0.0172 -0.1203
 8815PP      PP18919   2.921   5.167   9.871 -0.0847  0.0554  0.0810
 8816PP      PP18920   5.865  10.095  12.442 -0.0248  0.3101  0.0273
 8817PP      PP18921   3.872   3.366   9.726  0.2241  0.1666 -0.2428
 8818PP      PP18922   6.185   9.309  12.458 -0.1158  0.1279 -0.2936
 8819PP      PP18923  11.241   6.126  10.711  0.0737 -0.0909 -0.1404
 8820PP      PP18924   6.646   6.414  12.553  0.1583 -0.1331  0.1382
 8821PP      PP18925   8.176   7.727   2.979 -0.1546  0.0779  0.2238
 8822PP      PP18926   0.795   3.994  10.822  0.1028 -0.1844  0.0033
 8823PP      PP18927   7.697   4.327   8.243 -0.0947 -0.0972 -0.1653
 8824PP      PP18928  13.902  15.551  12.516 -0.0262 -0.1501  0.1928
 8825PP      PP18929  11.727  10.685  11.287  0.1294 -0.3487  0.0572
 8826PP      PP18930   5.544   8.852   3.564 -0.1646 -0.1002 -0.1905
 8827PP      PP18931   4.779   5.790   0.560 -0.0000  0.4625  0.0206
 8828PP      PP18932  11.203   5.716   2.266 -0.1708 -0.0684  0.1623
 8829PP      PP18933  13.204   1.591   3.318  0.1080 -0.1628 -0.0846
 8830PP      PP18934  15.604   2.752   1.819  0.1802  0.1426 -0.0014
 8831PP      PP18935   4.192  12.909   1.819 -0.0470  0.0894 -0.2829
 8832PP      PP18936   9.545  11.636   2.256  0.0069  0.0030 -0.0912
 8833PP      PP18937   8.621   5.557   1.263 -0.0822 -0.2357  0.0291
 8834PP      PP18938   3.371   8.618  12.094  0.1927  0.1255  0.0211
 8835PP      PP18939   8.678   9.489  12.426 -0.3571  0.1050  0.0760
 8836PP      PP18940  10.736  15.099  11.819  0.0409  0.0026  0.0987
 8837PP      PP18941  10.784   7.544   8.662  0.0843  0.0568 -0.0734
 8838PP      PP18942   2.965  15.386  10.566  0.0379  0.1820 -0.1056
 8839PP      PP18943   1.513   5.767   4.346 -0.2577  0.0876 -0.0440
 8840PP      PP18944   6.927   1.693   1.866 -0.1136  0.1079 -0.0341
 8841PP      PP18945  11.415  10.296  10.971 -0.0094 -0.1760 -0.1195
 8842PP      PP18946   8.022  13.291   3.206 -0.5081  0.0666 -0.1062
 8843PP      PP18947   4.374   1.031  13.138  0.1017 -0.0218  0.2987
 8844PP      PP18948   7.079   8.406  11.584 -0.3386  0.0152 -0.0704
 8845PP      PP18949   0.222   1.494   2.001 -0.0587 -0.4321  0.1192
 8846PP      PP18950   8.062   0.085   1.788 -0.2550  0.2624 -0.0097
 8847PP      PP18951  12.332  15.828  13.315  0.0197  0.0539 -0.0904
 8848PP      PP18952   1.905   6.322   2.724 -0.0917 -0.3227  0.0716
 8849PP      PP18953  13.346   9.211   8.406  0.3298  0.0740  0.2382
 8850PP      PP18954  10.573   0.256  12.523 -0.1119 -0.2869 -0.2204
 8851PP      PP18955   0.659  13.652  13.335  0.2297 -0.1793 -0.1723
 8852PP      PP18956  14.151  14.589   9.628  0.1252  0.0375  0.1487
 8853PP      PP18957   1.061   8.936   3.714 -0.0405 -0.1266  0.2952
 8854PP      PP18958   5.779   2.038   4.227 -0.5613  0.0909  0.0179
 8855PP      PP18959  13.635   0.859   9.014 -0.2102  0.1787 -0.1491
 8856PP      PP18960   4.175  10.887   9.396 -0.4773 -0.1045 -0.0251
 8857PP      PP18961   0.720   5.866   9.693 -0.1600 -0.0756 -0.1928
 8858PP      PP18962   9.476   4.597   0.985  0.0596  0.0725  0.2336
 8859PP      PP18963   5.233  11.569  12.192  0.2484  0.3234 -0.0575
 8860PP      PP18964   6.564   8.383   4.079 -0.0182 -0.0337  0.0483
 8861PP      PP18965  13.604   9.869   0.732 -0.1528 -0.0678  0.0408
 8862PP      PP18966   7.632   6.467   2.545 -0.0022  0.1250 -0.2433
 8863PP      PP18967  15.694   9.412   1.135  0.1974  0.0017  0.0137
 8864PP      PP18968   1.612  11.434   9.345  0.1242  0.0305 -0.1977
 8865PP      PP18969   4.815  12.165   0.290 -0.0695 -0.1404  0.3698
 8866PP      PP18970   1.190  15.681   8.834  0.1736  0.0346  0.4022
 8867PP      PP18971   8.528   8.136  10.185  0.2180  0.1329  0.0967
 8868PP      PP18972   5.375   7.999   0.496  0.3205  0.1990 -0.3101
 8869PP      PP18973   0.674   4.822  11.177 -0.0536 -0.2628  0.0435
 8870PP      PP18974  11.010   9.986   2.943 -0.1596 -0.0297  0.1618
 8871PP      PP18975   5.499   9.070  10.525 -0.1825 -0.0358 -0.1149
 8872PP      PP18976   8.310   1.312   3.354 -0.1191  0.2965 -0.1004
 8873PP      PP18977   2.784   4.329  12.401  0.0984  0.3400 -0.0739
 8874PP      PP18978   8.422   6.048   9.256  0.1803  0.0336 -0.0553
 8875PP      PP18979   0.281   8.061   4.077  0.1477  0.0664  0.1281
 8876PP      PP18980  15.338   7.419   0.531  0.0412 -0.3172  0.3279
 8877PP      PP18981   0.341  13.686   1.818 -0.3042  0.1991 -0.0755
 8878PP      PP18982   3.601   6.778   3.371  0.1594 -0.1620  0.2486
 8879PP      PP18983   4.532   1.770  11.988 -0.3373  0.1909 -0.0357
 8880PP      PP18984   5.354   9.476   9.266  0.1162  0.0698 -0.0760
 8881PP      PP18985  12.938  12.582   3.449 -0.0837 -0.1329  0.3459
 8882PP      PP18986  14.291   7.490   2.772  0.2719 -0.5143  0.1504
 8883PP      PP18987   2.400  15.099  12.200 -0.2935  0.1020  0.1957
 8884PP      PP18988  14.842   8.903  11.132  0.2654 -0.0348 -0.2245
 8885PP      PP18989   4.881  10.746   4.060  0.0672 -0.0826  0.0954
 8886PP      PP18990   0.034   1.827  11.834 -0.0978  0.1693  0.1026
 8887PP      PP18991  15.361  11.086   9.713 -0.0100 -0.0331  0.1518
 8888PP      PP18992   0.040  14.039  10.373 -0.2776 -0.2600 -0.0238
 8889PP      PP18993  10.384   6.439   8.132  0.1599 -0.0038 -0.0339
 8890PP      PP18994  15.677  10.113   9.535 -0.0364  0.0079 -0.3458
 8891PP      PP18995   5.172  11.886  10.014 -0.0157  0.1205 -0.3078
 8892PP      PP18996   3.672  13.273   8.904 -0.0840  0.0818  0.1106
 8893PP      PP18997   3.750  10.288  11.070 -0.0553 -0.0962  0.1217
 8894PP      PP18998   6.670   6.452   0.135 -0.0342 -0.0294  0.1252
 8895PP      PP18999  11.318   7.545   8.357 -0.3690 -0.0930 -0.2788
 8896PP      PP19000  15.046  10.644  10.892 -0.2966 -0.1554 -0.1884
 8897PP      PP19001   4.282   8.103   1.998  0.2278  0.2910 -0.2413
 8898PP      PP19002   1.601  11.312  12.893 -0.0162  0.0549 -0.4681
 8899PP      PP19003   4.210   0.706  10.191 -0.0634  0.0767  0.0470
 8900PP      PP19004   1.541  11.006  13.355  0.2147 -0.1872 -0.1739
 8901PP      PP19005  11.208   0.164   0.494 -0.0373 -0.2592 -0.0862
 8902PP      PP19006  14.523   3.940   2.357  0.0678  0.2741  0.0959
 8903PP      PP19007   1.172   7.990   2.359 -0.0273 -0.1315 -0.1072
 8904PP      PP19008   3.861  13.605   9.877 -0.0152  0.0270  0.1668
 8905PP      PP19009  10.393   4.090  11.436  0.0426 -0.1617  0.2762
 8906PP      PP19010   5.920   9.634  11.171 -0.1234  0.2143 -0.2723
 8907PP      PP19011  13.708   5.577   2.088  0.0727  0.2692 -0.2606
 8908PP      PP19012   8.482   8.022  12.550 -0.0462 -0.0196 -0.1388
 8909PP      PP19013   0.817   3.011  10.504  0.1568  0.1906  0.0700
 8910PP      PP19014   3.483  11.917  10.351  0.0351 -0.2476 -0.1910
 8911PP      PP19015   2.018   1.272   3.838 -0.0887  0.0619  0.1169
 8912PP      PP19016   5.181  14.952  10.385 -0.2177  0.2097 -0.1371
 8913PP      PP19017  11.068  13.894   3.892  0.0292 -0.0370  0.0170
 8914PP      PP19018   1.332   6.815   0.903 -0.3050  0.1136  0.2966
 8915PP      PP19019  12.129   4.372   3.834 -0.0620 -0.0714 -0.1690
 8916PP      PP19020   3.862  10.676   0.528 -0.0275  0.0561  0.0130
 8917PP      PP19021  12.792  10.162   8.966  0.1806 -0.0620 -0.1508
 8918PP      PP19022   8.713  11.847   3.906 -0.2040  0.3191 -0.5541
 8919PP      PP19023   9.433   3.634  13.103  0.2433 -0.4644 -0.2304
 8920PP      PP19024  10.949   7.638  13.084  0.4489 -0.0371 -0.0773
 8921PP      PP19025   8.985  11.591  11.869 -0.3241 -0.4173 -0.1835
 8922PP      PP19026  12.513   0.020  10.970 -0.0021 -0.2706 -0.0307
 8923PP      PP19027   9.492   8.218   9.129 -0.2480  0.0203 -0.0313
 8924PP      PP19028   1.620   6.296   1.139  0.2531  0.2313  0.1119
 8925PP      PP19029   7.758  10.947   1.127  0.1044 -0.0955  0.1089
 8926PP      PP19030   6.789   5.690   2.241  0.1679  0.2241  0.3439
 8927PP      PP19031   8.545   0.205   4.542  0.0470  0.3673  0.1514
 8928PP      PP19032   7.246   8.894   3.266  0.0140  0.2821 -0.0024
 8929PP      PP19033  12.009   1.373  10.993  0.0543  0.0349 -0.0705
 8930PP      PP19034   9.890   6.181  11.525 -0.3277 -0.1308  0.1343
 8931PP      PP19035  11.633   5.069  13.255  0.1912  0.1694  0.1132
 8932PP      PP19036  14.253  15.329  11.981  0.1320 -0.5896  0.0989
 8933PP      PP19037  12.876  15.232   4.176  0.0789  0.0838 -0.1751
 8934PP      PP19038   1.845  10.825  12.469  0.0752  0.1644 -0.0022
 8935PP      PP19039   4.265  13.302   0.131 -0.1233  0.0761  0.0989
 8936PP      PP19040  10.176  12.049   1.501 -0.0591  0.2445 -0.0429
 8937PP      PP19041  13.754   3.623   2.048  0.3508  0.3855  0.2174
 8938PP      PP19042   2.088  15.100   2.116  0.3995  0.2309  0.0371
 8939PP      PP19043  13.018  14.410  13.215 -0.1844  0.3853  0.0434
 8940PP      PP19044  15.207   8.998  10.333  0.0518 -0.3177 -0.0454
 8941PP      PP19045   0.390  11.699  11.605 -0.0076 -0.2290  0.1217
 8942PP      PP19046   9.685  10.031  10.265  0.0618  0.0620  0.3411
 8943PP      PP19047  13.204   5.783   1.046 -0.1313  0.2837  0.1526
 8944PP      PP19048   6.989  11.618   2.332  0.1937  0.0147 -0.2416
 8945PP      PP19049  14.931   6.130   1.647  0.0826  0.0944 -0.4162
 8946PP      PP19050  13.522  14.199   2.444 -0.1225 -0.3962 -0.1010
 8947PP      PP19051   7.155  15.850   4.536 -0.0024 -0.0843 -0.2299
 8948PP      PP19052  11.782  11.295   8.734  0.1683 -0.4106  0.0915
 8949PP      PP19053   2.065   1.729   2.886 -0.1141  0.2022 -0.3373
 8950PP      PP19054  14.121   8.720   1.912 -0.1396 -0.1239 -0.0821
 8951PP      PP19055  13.235   6.188   9.184  0.0039 -0.0024 -0.0265
 8952PP      PP19056  12.469  13.902   2.776 -0.2733 -0.0435 -0.0188
 8953PP      PP19057   9.222   5.880   8.968  0.0598  0.0263  0.2961
 8954PP      PP19058   4.622   8.603   4.389 -0.4555  0.0981 -0.0593
 8955PP      PP19059   2.752   2.554  13.392 -0.1623  0.1837 -0.1256
 8956PP      PP19060   3.857  10.759   2.464  0.1016 -0.0118 -0.1838
 8957PP      PP19061   2.623   5.690   2.398 -0.4002  0.1409 -0.2219
 8958PP      PP19062  13.191   5.365   1.560 -0.0853  0.0448 -0.0513
 8959PP      PP19063  11.064   5.594   1.724  0.2131  0.0030 -0.1636
 8960PP      PP19064  12.923   1.005   1.093 -0.2524 -0.2662  0.1043
 8961PP      PP19065   0.363   7.925   8.450  0.2876 -0.0916  0.2460
 8962PP      PP19066   2.329   0.268   0.861 -0.0780 -0.3476  0.0563
 8963PP      PP19067  11.528   5.281   2.485 -0.2355 -0.1469  0.4187
 8964PP      PP19068   0.692   6.592   8.710 -0.0797  0.6072  0.2986
 8965PP      PP19069  14.896   8.022   8.829  0.2767 -0.0473  0.2326
 8966PP      PP19070   6.938   2.520  10.065 -0.4693  0.0495  0.2655
 8967PP      PP19071   6.763  10.132   1.245  0.0564  0.0602 -0.2508
 8968PP      PP19072  11.238   4.447  10.430 -0.1245  0.0486  0.0262
 8969PP      PP19073   9.667  13.668   9.132 -0.1386  0.0560  0.0814
 8970PP      PP19074  12.007   9.822   2.027 -0.1297 -0.1435  0.0796
 8971PP      PP19075   8.854  13.534   1.493 -0.1626 -0.1293  0.1340
 8972PP      PP19076   1.267  12.589   0.610  0.4728  0.0716 -0.0027
 8973PP      PP19077   6.972   3.739  11.867  0.2235  0.1994  0.3599
 8974PP      PP19078   7.371   5.727  10.821  0.1424  0.0616 -0.0217
 8975PP      PP19079   8.647   6.987  11.912  0.1542 -0.0193 -0.1848
 8976PP      PP19080   1.654  12.843  13.023 -0.0360  0.0961  0.1385
 8977PP      PP19081  13.097  12.321  13.163  0.3107 -0.2085  0.0527
 8978PP      PP19082   9.722   0.960   3.054  0.1910  0.2443 -0.2917
 8979PP      PP19083   8.256  13.641   3.530  0.0394  0.1695  0.2454
 8980PP      PP19084  10.597   9.888   1.299  0.0360 -0.1901 -0.2532
 8981PP      PP19085   5.265  10.870   9.119  0.0055  0.1764  0.1224
 8982PP      PP19086  13.972  11.800   4.433 -0.2839  0.1076 -0.4325
 8983PP      PP19087  15.696  14.604  13.091 -0.0495 -0.0125 -0.4154
 8984PP      PP19088   4.996  15.740   3.721  0.1561  0.0379 -0.0119
 8985PP      PP19089  11.761  15.743  11.470  0.0813  0.0142  0.3962
 8986PP      PP19090   0.259   5.972   2.238  0.2033  0.3268  0.4727
 8987PP      PP19091   9.399   5.854   3.032 -0.0827 -0.1440 -0.0280
 8988PP      PP19092  10.999  12.108   0.211  0.1958 -0.1244  0.0138
 8989PP      PP19093  15.510   8.001   9.858 -0.4747 -0.0336  0.2757
 8990PP      PP19094   8.964  15.871   4.102 -0.1784  0.1792 -0.1743
 8991PP      PP19095  12.479   1.258  13.252 -0.1423  0.2053 -0.1353
 8992PP      PP19096   3.149   6.764  13.249 -0.0432 -0.0713 -0.3005
 8993PP      PP19097  10.327   1.560   0.290 -0.3359  0.1773  0.0158
 8994PP      PP19098  14.720  10.665   9.455 -0.2867  0.2312  0.0343
 8995PP      PP19099   2.991   0.872  13.072  0.1931 -0.0740  0.1372
 8996PP      PP19100  13.190  11.603   0.739  0.0571 -0.0577 -0.2353
 8997PP      PP19101   6.751   7.412   3.151  0.1044  0.3289  0.0474
 8998PP      PP19102   7.104  13.222   9.632 -0.0007  0.0780 -0.0812
 8999PP      PP19103   6.190  10.449  10.967 -0.0428  0.1626  0.0689
 9000PP      PP19104   4.654  13.101  11.804  0.1158  0.1066 -0.0436
 9001PP      PP19105   0.505   2.918   0.121 -0.1297 -0.0378  0.2376
 9002PP      PP19106   9.284  13.087   3.553 -0.0289  0.0389  0.0592
 9003PP      PP19107   7.669  11.780   1.736 -0.1426 -0.0523  0.0271
 9004PP      PP19108   3.270   4.076   9.970  0.0948  0.0401  0.1200
 9005PP      PP19109  13.942   2.014  10.532  0.1035 -0.0680  0.1074
 9006PP      PP19110  13.383  11.881   2.162  0.1293  0.1117 -0.1306
 9007PP      PP19111   4.613  13.778   4.028  0.0049  0.0192  0.2045
 9008PP      PP19112  10.262   0.965   4.509 -0.1703 -0.1061 -0.1801
 9009PP      PP19113  12.551   2.329   1.325  0.0420 -0.2978  0.0400
 9010PP      PP19114   1.998   8.045   3.781 -0.0370  0.0265 -0.1523
 9011PP      PP19115   0.767   7.480  11.945  0.0696 -0.3168  0.0714
 9012PP      PP19116   4.433   3.444  10.397 -0.2559 -0.0365  0.0735
 9013PP      PP19117  11.102  13.531  10.745  0.1212  0.0021  0.1652
 9014PP      PP19118  11.916  13.013   0.681 -0.2095 -0.0704 -0.1586
 9015PP      PP19119   7.319  14.872   4.719  0.0562 -0.1716  0.2631
 9016PP      PP19120   1.648   4.514  12.772  0.2098  0.3992 -0.3851
 9017PP      PP19121   7.138   6.886   1.020  0.1173 -0.3213 -0.0479
 9018PP      PP19122   8.577   4.273   2.351 -0.1335 -0.0123 -0.0284
 9019PP      PP19123  15.278   7.765   8.895 -0.2145  0.2084  0.0167
 9020PP      PP19124  14.944   8.824   3.568  0.0584  0.0599  0.3612
 9021PP      PP19125   5.476  12.459   2.613  0.1736 -0.1242 -0.2873
 9022PP      PP19126   3.334   9.226   1.021  0.5596 -0.0806 -0.2010
 9023PP      PP19127  14.774   4.794   2.271  0.3714  0.0774  0.0509
 9024PP      PP19128  13.414  10.381   2.985 -0.0076 -0.1560  0.0236
 9025PP      PP19129   8.180   2.422   2.876 -0.2170  0.1372  0.0921
 9026PP      PP19130   1.459   8.660   9.676 -0.1173  0.1106  0.0461
 9027PP      PP19131   5.753   6.266   3.192 -0.1313  0.1350  0.0928
 9028PP      PP19132   3.563  12.522   0.316 -0.1391 -0.1549 -0.3353
 9029PP      PP19133  14.850   1.205  10.141 -0.2149  0.1405  0.0223
 9030PP      PP19134  13.564   3.131  12.891  0.0569 -0.0700 -0.2735
 9031PP      PP19135  11.017   2.751   2.756  0.2674 -0.4390  0.0258
 9032PP      PP19136  15.888   7.480   9.637 -0.1047  0.1041  0.0681
 9033PP      PP19137  12.301   5.855  10.613 -0.3667  0.2275 -0.0891
 9034PP      PP19138   6.542  10.428   3.132  0.0024 -0.0430 -0.0354
 9035PP      PP19139   2.064   8.798  11.847  0.3559  0.0793  0.0224
 9036PP      PP19140   5.864   2.574   0.269  0.0107  0.5369 -0.3387
 9037PP      PP19141   3.096   2.496   2.085 -0.0747 -0.0427  0.0525
 9038PP      PP19142   5.502  13.410   2.190  0.0332 -0.1513 -0.3194
 9039PP      PP19143   9.856   0.941   4.027  0.0976 -0.2967  0.1282
 9040PP      PP19144   8.854   7.947   3.249 -0.0269  0.0542  0.0353
 9041PP      PP19145   2.746   9.818  12.378  0.0134 -0.1811  0.0814
 9042PP      PP19146   2.754  13.989   2.754  0.0541 -0.3598 -0.1216
 9043PP      PP19147   6.668   7.355   0.159 -0.1969  0.2445  0.1132
 9044PP      PP19148   0.973  11.723  10.428  0.3478  0.1141 -0.3091
 9045PP      PP19149   4.639   6.781   3.314  0.1449  0.3569 -0.0942
 9046PP      PP19150  11.568   7.366   9.346  0.3243  0.2050 -0.0480
 9047PP      PP19151   8.253   3.348   0.707 -0.2472  0.1124 -0.0787
 9048PP      PP19152   6.182   2.180   2.382 -0.2670 -0.1779  0.0253
 9049PP      PP19153   5.920   3.118   9.091  0.0640 -0.1091 -0.2109
 9050PP      PP19154   6.497   3.549   4.015 -0.2431 -0.1497 -0.0212
 9051PP      PP19155   9.927   6.383   1.973 -0.2898  0.1738 -0.0499
 9052PP      PP19156  11.864  13.360   3.154 -0.1016 -0.0641  0.0935
 9053PP      PP19157   3.166   5.598   0.488  0.2373 -0.5541 -0.0395
 9054PP      PP19158   5.434  12.885   3.216  0.1617  0.0151  0.4354
 9055PP      PP19159   5.124   9.939  10.035  0.1688 -0.2233  0.2077
 9056PP      PP19160   7.665  10.968   9.230 -0.3296 -0.2834  0.0146
 9057PP      PP19161  15.004   9.853  11.425 -0.0329  0.2259  0.0420
 9058PP      PP19162   7.485   3.465  11.156  0.2018  0.1204  0.0220
 9059PP      PP19163   4.554   8.492   3.472 -0.1411 -0.2248  0.0443
 9060PP      PP19164  13.603   3.275  11.897  0.1017  0.3491 -0.1873
 9061PP      PP19165   4.758   3.298   2.532 -0.0804  0.0282  0.1526
 9062PP      PP19166  12.506  12.583   8.899  0.2035 -0.1470  0.0603
 9063PP      PP19167   8.879   5.766  12.138  0.2658  0.2299 -0.0601
 9064PP      PP19168   5.919   3.045   1.114 -0.4259  0.0942 -0.0335
 9065PP      PP19169   5.284   2.814   9.667  0.0966 -0.2331  0.0016
 9066PP      PP19170  12.531  13.662   0.680 -0.0183 -0.0679  0.0786
 9067PP      PP19171   1.815  11.332   3.128 -0.0867 -0.1115 -0.1825
 9068PP      PP19172  12.010   7.596   0.659 -0.1323  0.0077  0.1343
 9069PP      PP19173   1.246  15.730  11.750 -0.1818  0.0377 -0.3660
 9070PP      PP19174  11.122   5.277  11.116 -0.1748  0.1075 -0.0008
 9071PP      PP19175  10.554   2.888   2.421  0.1199 -0.1745 -0.1097
 9072PP      PP19176   0.363  12.933   2.498  0.1454 -0.2174  0.0825
 9073PP      PP19177  14.602  13.734  11.265 -0.1545 -0.0425  0.2799
 9074PP      PP19178  15.875   4.868  12.000  0.0402  0.1977  0.0589
 9075PP      PP19179   3.984   6.322  11.922 -0.1821  0.0388 -0.3261
 9076PP      PP19180  14.117   7.138  12.902 -0.1628  0.1652 -0.0289
 9077PP      PP19181  12.923   8.162   8.517 -0.1822  0.1226 -0.1399
 9078PP      PP19182   7.749  10.003  11.835  0.0456  0.1119 -0.0807
 9079PP      PP19183  11.421   9.004   0.277  0.1006  0.1414 -0.0275
 9080PP      PP19184  12.316   1.914  10.981  0.1030  0.1417  0.2594
 9081PP      PP19185  12.732  14.113  12.919 -0.1958  0.3071  0.0614
 9082PP      PP19186   6.211  12.839   3.106  0.0971  0.0110  0.4143
 9083PP      PP19187  14.518   9.024   1.698 -0.0442  0.1799 -0.1078
 9084PP      PP19188   6.159   7.815  13.531 -0.0794 -0.2884  0.3501
 9085PP      PP19189  12.402  14.563   9.213 -0.0504  0.0531  0.0027
 9086PP      PP19190   8.738  10.868   0.559 -0.0702 -0.0521 -0.0021
 9087PP      PP19191   1.142   3.909  12.185  0.4550 -0.2574  0.1840
 9088PP      PP19192   8.687   2.612   1.027 -0.0129 -0.0261  0.0876
 9089PP      PP19193  11.753   0.099  10.656 -0.3275  0.1266  0.2032
 9090PP      PP19194   4.510  13.560   1.933 -0.3958  0.1722 -0.1711
 9091PP      PP19195   8.051  14.231   8.414  0.4549  0.1779 -0.0915
 9092PP      PP19196  12.045  12.780  11.951 -0.1047 -0.1384 -0.0916
 9093PP      PP19197   2.527   5.842   3.911 -0.2902  0.1268 -0.0074
 9094PP      PP19198   3.849  14.817  10.175  0.2039  0.0123 -0.1125
 9095PP      PP19199   4.665  15.101   1.824 -0.1198 -0.2912  0.2094
 9096PP      PP19200  11.751  15.059   9.933 -0.1614 -0.1170  0.2189
 9097PP      PP19201   3.292  14.961   4.539  0.0246 -0.0931 -0.3052
 9098PP      PP19202  13.685   7.084   7.798 -0.1167  0.0641 -0.5070
 9099PP      PP19203   7.870  13.759   2.092 -0.1686  0.1606  0.1061
 9100PP      PP19204  14.071   3.943   0.273 -0.2225 -0.3229  0.1419
 9101PP      PP19205   2.250  13.438   2.382 -0.1075  0.2657 -0.1347
 9102PP      PP19206  10.828   8.245   8.917 -0.2850  0.1390  0.0084
 9103PP      PP19207   8.378  10.549   0.306  0.2827 -0.1140  0.0583
 9104PP      PP19208   6.481   0.147   9.430  0.3062  0.4771  0.1096
 9105PP      PP19209   4.115  15.284   3.491  0.0864  0.0219  0.1764
 9106PP      PP19210   1.295  13.677   0.416 -0.1560  0.0855 -0.0230
 9107PP      PP19211   2.281   3.111   4.194  0.0092  0.0988 -0.2840
 9108PP      PP19212   5.537  11.690   9.086 -0.1189 -0.2721  0.2656
 9109PP      PP19213  12.086   0.590   2.419  0.0583  0.1816 -0.0135
 9110PP      PP19214   4.738   5.008  10.183  0.3716  0.1180  0.2441
 9111PP      PP19215   3.087  13.989   1.854 -0.3009 -0.1144 -0.0127
 9112PP      PP19216  14.998  13.266   2.125 -0.2285  0.0580  0.1108
 9113PP      PP19217  11.803  12.382   2.111 -0.1220 -0.2400 -0.1148
 9114PP      PP19218   6.060  15.663  11.841 -0.1220 -0.1707  0.1258
 9115PP      PP19219  15.543  14.593  12.128 -0.2693 -0.1125 -0.0818
 9116PP      PP19220   8.530   6.147  11.861  0.1159  0.3617  0.0504
 9117PP      PP19221   0.919   1.094   9.509  0.1636 -0.1999 -0.0548
 9118PP      PP19222  14.576   7.808  10.102  0.2214  0.2639  0.0289
 9119PP      PP19223   5.373   8.221   9.176 -0.3162 -0.0356 -0.2796
 9120PP      PP19224   3.699  11.426   1.596  0.0856 -0.2273  0.1567
 9121PP      PP19225  13.979   2.767   8.363  0.0656 -0.0169  0.0722
 9122PP      PP19226   8.930  11.668   1.591 -0.0183 -0.1917  0.2030
 9123PP      PP19227   9.246   1.683  12.341 -0.0522 -0.0185 -0.2165
 9124PP      PP19228   9.038   4.742  11.379 -0.0373  0.0218  0.0061
 9125PP      PP19229   8.566  13.569   3.084 -0.1910 -0.1880  0.1822
 9126PP      PP19230   9.022   5.267   0.946 -0.0244 -0.0141 -0.0319
 9127PP      PP19231   2.415  15.510   2.765  0.3817  0.1597 -0.0104
 9128PP      PP19232   9.129  15.875   4.624  0.2158  0.2114 -0.0785
 9129PP      PP19233   2.586   3.872   0.599 -0.0191  0.0909  0.1495
 9130PP      PP19234   0.700   8.386  10.808  0.0167  0.2730  0.2884
 9131PP      PP19235  14.120   9.316   3.656  0.1407 -0.1733  0.1512
 9132PP      PP19236   1.219  10.758  10.448 -0.4838  0.1212 -0.0167
 9133PP      PP19237   9.676  10.928   0.491 -0.0063  0.0758 -0.1209
 9134PP      PP19238  14.742   9.287   3.396 -0.1322  0.0662 -0.1401
 9135PP      PP19239  15.494  13.268   2.821  0.0582 -0.1673  0.0694
 9136PP      PP19240  12.895   7.675   8.956 -0.2135 -0.2657  0.0802
 9137PP      PP19241   8.045   7.113   0.774 -0.2691 -0.1245  0.1939
 9138PP      PP19242  15.006   5.543   3.976 -0.3254  0.2544 -0.3048
 9139PP      PP19243  11.081  14.286   2.164 -0.2776 -0.2156  0.0014
 9140PP      PP19244   3.202   5.047   1.220  0.1341 -0.2784 -0.0705
 9141PP      PP19245  14.587  10.389   0.862  0.1092  0.1410  0.1911
 9142PP      PP19246  12.257   2.546   2.433 -0.3093 -0.2155  0.0566
 9143PP      PP19247   5.779  12.535  12.443 -0.2448  0.1070 -0.2038
 9144PP      PP19248   9.343   9.721  13.450 -0.0622 -0.4278 -0.1679
 9145PP      PP19249   5.703   5.394   3.052 -0.0724 -0.3551  0.1157
 9146PP      PP19250  10.368   1.293   9.451  0.0109  0.1368  0.1334
 9147PP      PP19251   0.989   9.424   9.491 -0.1018  0.1964 -0.4386
 9148PP      PP19252   9.245   2.196   2.278 -0.2937  0.0001  0.3506
 9149PP      PP19253  13.958   8.456  13.369 -0.1802 -0.0622  0.2732
 9150PP      PP19254  11.590   5.970  12.629  0.1060 -0.0016  0.4192
 9151PP      PP19255   4.381  11.500  13.108 -0.2401  0.0979 -0.1720
 9152PP      PP19256  12.721  13.506   0.213  0.1278  0.1995  0.0781
 9153PP      PP19257   2.890  15.643  11.017 -0.2106  0.2244  0.3115
 9154PP      PP19258   9.253  14.848  12.320 -0.1419  0.1118  0.1946
 9155PP      PP19259   1.943   4.847  11.265 -0.0763 -0.1222  0.0098
 9156PP      PP19260   4.664   7.628  10.633  0.0938 -0.1222  0.0628
 9157PP      PP19261  11.577   6.844  13.306  0.4963  0.0142  0.0470
 9158PP      PP19262  13.779  14.830   2.970  0.2352 -0.0553  0.1505
 9159PP      PP19263  14.426  10.665  13.508  0.1600  0.0362 -0.0200
 9160PP      PP19264  14.042  11.739  12.471  0.1204 -0.1740  0.1496
 9161PP      PP19265  10.037  11.574   2.323 -0.0256 -0.2426 -0.2911
 9162PP      PP19266   0.397   6.949  11.113  0.2880  0.1315  0.1089
 9163PP      PP19267  14.012  13.047   0.147  0.0702 -0.0095 -0.2377
 9164PP      PP19268   4.363   8.435  12.332  0.0113  0.1499 -0.3787
 9165PP      PP19269  11.595  11.721  12.112  0.1142 -0.1394  0.0177
 9166PP      PP19270   4.198   5.228   0.782  0.1043  0.1708  0.0867
 9167PP      PP19271  11.761   7.091   8.378  0.2231 -0.0044  0.0843
 9168PP      PP19272  14.492  14.289   0.122  0.1550  0.0651 -0.2159
 9169PP      PP19273   7.588   5.451   9.491  0.2719  0.0791 -0.1826
 9170PP      PP19274  13.349  14.628   1.188  0.1361 -0.0255 -0.0422
 9171PP      PP19275   9.195  12.303   0.367  0.1301  0.0927  0.3197
 9172PP      PP19276   8.173  15.196   4.805 -0.3186  0.1491  0.1506
 9173PP      PP19277   7.158   7.802  12.800  0.1315 -0.3215  0.1879
 9174PP      PP19278   2.587   7.846   4.111 -0.2159  0.1801 -0.2828
 9175PP      PP19279   7.634   4.381   2.334 -0.3427  0.3914  0.1276
 9176PP      PP19280   7.315   2.038   2.554  0.0108 -0.0864  0.3355
 9177PP      PP19281   5.608   5.360  10.908  0.1235  0.1030 -0.0912
 9178PP      PP19282  15.120  10.773   9.267 -0.3519 -0.0616  0.1456
 9179PP      PP19283   8.887   9.513   9.316 -0.2626  0.0312  0.0008
 9180PP      PP19284   0.563   1.372  12.612 -0.1160 -0.1898  0.1194
 9181PP      PP19285   0.407   0.582  11.709  0.1568 -0.1802  0.3888
 9182PP      PP19286   4.214  11.082   2.300  0.1574  0.1346  0.3084
 9183PP      PP19287   1.506  15.627  12.762  0.0670 -0.0247  0.1325
 9184PP      PP19288   6.696  10.059   2.173 -0.2193  0.2128  0.1294
 9185PP      PP19289  11.751   6.980  10.716  0.0966  0.1586  0.0331
 9186PP      PP19290   6.777   1.148   1.016 -0.5562  0.2453 -0.2528
 9187PP      PP19291  11.492  12.568  11.951 -0.0280  0.1751 -0.1097
 9188PP      PP19292   3.389  10.790  11.792  0.2261  0.1778  0.3192
 9189PP      PP19293   7.097   7.643  11.750 -0.2133 -0.1268 -0.2206
 9190PP      PP19294   7.794   9.051  11.609 -0.0614  0.1019  0.0758
 9191PP      PP19295  11.428   4.624  13.009  0.1067  0.0757  0.2260
 9192PP      PP19296   8.305   0.267   9.101  0.2274  0.1600  0.1169
 9193PP      PP19297   5.822  12.951   0.832  0.1366  0.2055  0.1627
 9194PP      PP19298   0.326   6.777   9.376  0.1552 -0.2703 -0.0359
 9195PP      PP19299   8.059  13.806   3.084 -0.3108  0.2309 -0.1173
 9196PP      PP19300  12.769   4.136  11.120  0.2004 -0.0056 -0.0694
 9197PP      PP19301   5.513   6.201   1.459 -0.7084 -0.1164  0.0957
 9198PP      PP19302   5.109  12.251   9.472  0.0721 -0.1287  0.0844
 9199PP      PP19303   5.704   8.449   3.278  0.3148  0.4738 -0.2379
 9200PP      PP19304  15.422   4.464   1.088 -0.0252 -0.1710  0.2947
 9201PP      PP19305   1.128  12.339  12.563 -0.0811 -0.1686 -0.3822
 9202PP      PP19306   4.160   8.989  13.307  0.2671  0.1714  0.0127
 9203PP      PP19307  12.723  12.446   4.579 -0.1573  0.0640  0.1599
 9204PP      PP19308   7.746  10.478   9.510 -0.0370  0.1519 -0.2068
 9205PP      PP19309   8.365  15.443  11.388 -0.1447  0.3029 -0.0238
 9206PP      PP19310   1.943  10.051  11.346 -0.0542  0.0050  0.2950
 9207PP      PP19311   7.726   6.200   2.157  0.1549  0.0869  0.0173
 9208PP      PP19312   2.740  10.910   1.725  0.0811  0.0702 -0.1411
 9209PP      PP19313   9.919   1.323  13.132  0.1690 -0.2875  0.0142
 9210PP      PP19314   6.575  14.115   9.048 -0.1483 -0.2294 -0.0959
 9211PP      PP19315  10.491  14.449  13.077  0.0146  0.2188  0.0199
 9212PP      PP19316  13.711  15.470   3.748  0.1265 -0.1197 -0.0381
 9213PP      PP19317   5.937   3.142   4.883  0.0328 -0.2167  0.2661
 9214PP      PP19318   2.017   0.770   3.648 -0.1163  0.1473 -0.1423
 9215PP      PP19319  13.678   0.331   9.026 -0.3482  0.0534  0.0356
 9216PP      PP19320  14.267   5.809   9.081 -0.0188 -0.0435  0.0926
 9217PP      PP19321   4.726   4.203   8.488 -0.2764  0.0720  0.1275
 9218PP      PP19322  13.086   3.916   9.118  0.1284  0.1638  0.0775
 9219PP      PP19323  11.742   5.899  11.510 -0.0098  0.0378 -0.2012
 9220PP      PP19324   4.387  11.005   9.925 -0.0869  0.1424  0.0395
 9221PP      PP19325   8.084   9.519   0.177 -0.0802  0.0390 -0.0391
 9222PP      PP19326  13.651  12.742   4.029  0.4089  0.1186  0.1445
 9223PP      PP19327   3.857   1.900   1.497 -0.1028 -0.1046 -0.2739
 9224PP      PP19328   9.574   9.524   0.276 -0.0436 -0.4502  0.1484
 9225PP      PP19329   4.561  12.688  12.205 -0.1612 -0.3105  0.0885
 9226PP      PP19330  13.503  15.857   2.521 -0.1665  0.0063 -0.0244
 9227PP      PP19331   2.399   4.743   0.747  0.0565 -0.2646  0.0995
 9228PP      PP19332   6.102  12.284  11.271 -0.0305  0.2507  0.0735
 9229PP      PP19333   9.833   3.453  10.481  0.0341  0.2713 -0.1350
 9230PP      PP19334   4.539  14.732  12.075  0.2154 -0.0416 -0.1821
 9231PP      PP19335   0.815   0.456  11.443  0.1438 -0.0570  0.2470
 9232PP      PP19336  12.245   4.229  10.282 -0.0722 -0.1958 -0.0748
 9233PP      PP19337   2.937   4.174   9.483  0.2432  0.0188 -0.0581
 9234PP      PP19338   0.454   1.318   5.119  0.2582 -0.1196 -0.3050
 9235PP      PP19339   8.745  11.210   9.993 -0.1698  0.1706 -0.1301
 9236PP      PP19340   0.745  11.080  12.619  0.0905  0.0169 -0.0726
 9237PP      PP19341  11.610   9.262   8.540 -0.3519 -0.0476 -0.2493
 9238PP      PP19342   9.071   2.412  12.464  0.2592  0.3470 -0.2162
 9239PP      PP19343   2.105   1.807  11.455  0.1042  0.0193 -0.1376
 9240PP      PP19344   3.204   8.517   1.415  0.0300  0.4190  0.0533
 9241PP      PP19345  12.954  11.814  12.541  0.0772 -0.2033  0.0097
 9242PP      PP19346   3.546  15.706   3.660  0.0803 -0.2385  0.0141
 9243PP      PP19347   3.137   7.463   2.846  0.0829  0.0061 -0.1412
 9244PP      PP19348   2.107  15.048   9.916  0.3387 -0.0796 -0.1378
 9245PP      PP19349   9.399   1.156   5.739  0.0136  0.0187 -0.1032
 9246PP      PP19350   9.485  15.499   1.384 -0.3056  0.3965  0.3273
 9247PP      PP19351  13.540  15.517  11.999  0.2303 -0.0072 -0.1069
 9248PP      PP19352   7.800   0.440   3.393  0.1199  0.2480 -0.0934
 9249PP      PP19353   4.327  12.806   3.298  0.2304  0.1663  0.0212
 9250PP      PP19354   2.530  11.340   9.499  0.0285 -0.0322  0.0471
 9251PP      PP19355   1.345  13.128  11.780  0.3556 -0.1338 -0.2373
 9252PP      PP19356  10.854  12.921  11.567  0.1283  0.1668 -0.0432
 9253PP      PP19357  14.268  11.036   1.325  0.1320  0.0695 -0.2089
 9254PP      PP19358  12.882  15.496   1.507  0.1991 -0.2629  0.2421
 9255PP      PP19359   5.785   0.009   2.916  0.0919  0.1285 -0.0729
 9256PP      PP19360   3.833   7.763   4.550  0.0189 -0.0787 -0.1137
 9257PP      PP19361  13.782   5.337  13.354 -0.0766 -0.4282  0.0061
 9258PP      PP19362  10.513  13.175  13.406 -0.0221 -0.3777  0.4082
 9259PP      PP19363  12.365  15.156   4.513  0.0896  0.1492 -0.0562
 9260PP      PP19364   0.810   9.044   2.849 -0.0773 -0.1579  0.1650
 9261PP      PP19365  12.969  10.222   4.031 -0.0265  0.2174 -0.0034
 9262PP      PP19366  10.787   0.331  10.580  0.0511 -0.1561 -0.0843
 9263PP      PP19367   1.588  15.419   4.105 -0.0154 -0.2990  0.1372
 9264PP      PP19368   1.161  15.162   4.264 -0.0318  0.3127 -0.2194
 9265PP      PP19369   3.941   9.672   9.699  0.2230 -0.0466 -0.0018
 9266PP      PP19370  15.176   3.166   2.197  0.0827 -0.3168 -0.0850
 9267PP      PP19371   1.692  10.329   9.657 -0.0173  0.0958 -0.0246
 9268PP      PP19372   4.621   3.634   9.140  0.1615 -0.2013  0.1902
 9269PP      PP19373  12.401   3.572   3.670 -0.0276  0.1187 -0.2843
 9270PP      PP19374  10.206   5.575  13.217  0.3521  0.0854  0.0317
 9271PP      PP19375   4.317   7.479  12.205 -0.1343 -0.3510 -0.0484
 9272PP      PP19376  14.730  10.940   1.630  0.0006 -0.1337 -0.0938
 9273PP      PP19377  10.881  12.606  12.730  0.0596  0.0241 -0.0586
 9274PP      PP19378  14.660   0.764  13.534 -0.0798 -0.0276  0.0517
 9275PP      PP19379  15.085  13.498  13.259 -0.0352  0.1370 -0.1501
 9276PP      PP19380   0.715   6.704   1.978  0.1208 -0.0563  0.3651
 9277PP      PP19381   9.079   7.229  10.654 -0.1473 -0.0917 -0.1364
 9278PP      PP19382   6.052  10.480   9.457  0.1134 -0.2248 -0.0037
 9279PP      PP19383  14.117   2.702  12.498 -0.0677 -0.2121 -0.0781
 9280PP      PP19384   1.951   9.710   1.590 -0.1872  0.1223  0.3831
 9281PP      PP19385  12.627   1.343   3.022  0.3105 -0.1505  0.0165
 9282PP      PP19386   0.096   1.917  10.817  0.1431 -0.2203  0.0644
 9283PP      PP19387   6.516   8.705  11.709 -0.0767 -0.0813 -0.2360
 9284PP      PP19388   4.125   4.355   9.165  0.1262 -0.1939 -0.0947
 9285PP      PP19389   8.514  10.521  10.919  0.0063 -0.3359 -0.1995
 9286PP      PP19390  10.744   0.218   0.353  0.1177  0.1180  0.0222
 9287PP      PP19391  12.906  10.441  12.436  0.0636 -0.2729 -0.1906
 9288PP      PP19392   0.442   0.527  12.586  0.0061 -0.0883 -0.0192
 9289PP      PP19393  15.682   8.458  10.518  0.1813  0.0343  0.1810
 9290PP      PP19394  10.388  13.781   9.761 -0.1009  0.2757  0.0487
 9291PP      PP19395   0.768  10.252  12.829  0.0550  0.2304  0.3648
 9292PP      PP19396  14.783   2.947  10.818 -0.0404  0.1558  0.0588
 9293PP      PP19397   0.598   7.952   3.758 -0.0633 -0.0333  0.2248
 9294PP      PP19398  11.347   2.152   4.548  0.0785  0.2182  0.2132
 9295PP      PP19399   7.199   6.368   2.689  0.3125  0.0173  0.0821
 9296PP      PP19400  14.708   5.896  13.217  0.1181  0.3501  0.2323
 9297PP      PP19401   5.407   1.248   2.947  0.0727  0.1589 -0.2302
 9298PP      PP19402   6.458   2.860   4.476 -0.0914  0.0351 -0.1978
 9299PP      PP19403  11.391   4.435   1.153  0.0173 -0.2468 -0.5954
 9300PP      PP19404  15.762   6.973   1.465  0.4507  0.3807 -0.3436
 9301PP      PP19405  14.921   8.336   2.374 -0.1741  0.2349 -0.0059
 9302PP      PP19406   4.798   2.672  13.412 -0.0230 -0.3001  0.3229
 9303PP      PP19407   1.616   5.419   3.685 -0.1024 -0.0362 -0.0485
 9304PP      PP19408  13.785  10.722  12.445  0.0788  0.2036 -0.0931
 9305PP      PP19409   4.205  11.762   0.851 -0.0746  0.2754  0.1155
 9306PP      PP19410  12.868   6.410   8.740 -0.1085 -0.1827  0.1610
 9307PP      PP19411   9.949   3.667   3.533  0.2621  0.1045 -0.0898
 9308PP      PP19412  10.986   3.746   9.717  0.1307  0.0748  0.1505
 9309PP      PP19413   4.811   0.374   3.747 -0.0975 -0.0627 -0.0401
 9310PP      PP19414   0.728  15.713   9.622 -0.2107  0.1035  0.0416
 9311PP      PP19415  14.680  11.504  13.128 -0.3807 -0.2028 -0.0412
 9312PP      PP19416  10.174   6.275   3.263 -0.1025  0.2583  0.1613
 9313PP      PP19417   9.055  14.423  10.036  0.2123 -0.1305  0.0932
 9314PP      PP19418  10.654   7.558  12.282 -0.1614  0.1696 -0.0974
 9315PP      PP19419   7.854   3.832   0.728  0.0675 -0.3338  0.0409
 9316PP      PP19420   9.832   1.840  12.452 -0.1205 -0.1243 -0.0959
 9317PP      PP19421   3.896   1.589  13.446 -0.0113 -0.0331 -0.0681
 9318PP      PP19422  12.712   5.584  12.472 -0.2058 -0.0910  0.1584
 9319PP      PP19423  14.242   0.622   0.393  0.0889 -0.2730 -0.2631
 9320PP      PP19424  15.743   4.066   0.129  0.1601  0.0092  0.0220
 9321PP      PP19425   9.626   7.932   1.072  0.1799  0.0424  0.1702
 9322PP      PP19426   9.610   5.868   9.987 -0.0583  0.3300  0.1887
 9323PP      PP19427  13.506   1.949   3.019 -0.0698  0.0520  0.0937
 9324PP      PP19428   0.511   1.327   1.088 -0.2280  0.0664 -0.1025
 9325PP      PP19429  10.430  15.056   0.652 -0.0502  0.0679 -0.0413
 9326PP      PP19430   3.477   2.208   0.857  0.2626  0.2909 -0.0393
 9327PP      PP19431   4.789   1.123   1.340 -0.2350  0.1210  0.0148
 9328PP      PP19432   8.676   4.577   1.342 -0.2201  0.1851  0.0422
 9329PP      PP19433   3.750  13.158  11.723  0.4121 -0.3253 -0.1531
 9330PP      PP19434   2.562   3.146   0.904  0.1667  0.1449 -0.0015
 9331PP      PP19435   5.613  10.926   1.165 -0.0874  0.0904  0.0970
 9332PP      PP19436  10.513  13.362  12.278  0.0148 -0.2046  0.0464
 9333PP      PP19437  13.370   8.116   1.236 -0.2524 -0.0355  0.0249
 9334PP      PP19438   9.645  12.085   3.973  0.0896 -0.0728  0.0099
 9335PP      PP19439   8.464   3.926  12.845  0.1659 -0.0491  0.0223
 9336PP      PP19440   4.278   9.998  13.158  0.0751 -0.0359 -0.1445
 9337PP      PP19441   3.185  12.231  11.350 -0.0436 -0.1307  0.1466
 9338PP      PP19442  10.319   0.220  13.426  0.1565  0.0204  0.2838
 9339PP      PP19443   9.576  14.359   2.201  0.0452  0.0278 -0.2027
 9340PP      PP19444   7.647  10.741   0.242  0.2452 -0.0916  0.1377
 9341PP      PP19445   8.659  14.186   4.397  0.2007 -0.1566  0.1343
 9342PP      PP19446   6.273   1.183   2.451  0.2937 -0.2448  0.0334
 9343PP      PP19447  10.044   2.833   2.012  0.1408 -0.2676  0.1634
 9344PP      PP19448   4.362  13.209  10.968 -0.1937 -0.0543 -0.1138
 9345PP      PP19449   0.315   0.171   0.924  0.1058 -0.1961 -0.1547
 9346PP      PP19450   9.018   3.953  11.664 -0.0746 -0.0907 -0.0442
 9347PP      PP19451  10.565   9.743  10.206  0.0754  0.1211 -0.3304
 9348PP      PP19452   8.329   4.666  11.094  0.2583  0.0060 -0.0276
 9349PP      PP19453   4.075   5.546   1.995  0.3492  0.1231  0.1460
 9350PP      PP19454   3.212   9.383  11.705  0.3394 -0.3308  0.1885
 9351PP      PP19455   0.230   2.861  10.478  0.1970 -0.0413 -0.1250
 9352PP      PP19456   1.816  11.374  10.611  0.0192 -0.1233  0.0405
 9353PP      PP19457   8.537   9.954   1.557 -0.0728 -0.3829 -0.2084
 9354PP      PP19458   6.494   7.928   4.007  0.0933 -0.1962 -0.2154
 9355PP      PP19459  15.062   9.277  12.975 -0.0262  0.0222 -0.2196
 9356PP      PP19460   2.219   3.308   1.309  0.1938 -0.0565  0.1808
 9357PP      PP19461   7.668   8.596   1.951 -0.0606 -0.2083  0.3595
 9358PP      PP19462   2.653   6.345   2.559 -0.0791  0.2400  0.1931
 9359PP      PP19463   8.554  14.278  12.995  0.0062 -0.0704  0.0937
 9360PP      PP19464  15.083  12.004   2.977  0.1447 -0.2813  0.3829
 9361PP      PP19465  11.077   2.775   3.824  0.0016  0.1505 -0.1160
 9362PP      PP19466  14.645   5.591   1.366  0.3219 -0.3263  0.1048
 9363PP      PP19467   6.285   3.456   8.927  0.0916 -0.0470  0.0643
 9364PP      PP19468   7.681   5.319  13.138  0.2160  0.0821  0.0823
 9365PP      PP19469   2.960   2.057   9.851 -0.1578 -0.0299 -0.2573
 9366PP      PP19470  14.450   4.524   4.156 -0.2506  0.1956 -0.2029
 9367PP      PP19471   8.411   9.062   1.145 -0.0260  0.2411 -0.1421
 9368PP      PP19472   4.729  11.588  10.146 -0.1995 -0.0246 -0.0534
 9369PP      PP19473   3.151   6.524   3.531  0.0379 -0.1334  0.1064
 9370PP      PP19474   1.125   5.953  11.257  0.3804 -0.2354  0.1776
 9371PP      PP19475  14.409  12.111  10.651  0.1115  0.1631  0.3458
 9372PP      PP19476   7.232  14.492  12.504  0.0771  0.0128  0.1148
 9373PP      PP19477  14.600   4.602  13.243 -0.3471 -0.1457 -0.2283
 9374PP      PP19478   8.962   5.323  11.434 -0.1002 -0.0069  0.1413
 9375PP      PP19479   5.940   4.684   8.974 -0.0941 -0.0431 -0.0611
 9376PP      PP19480   9.897  11.446   0.523  0.1001 -0.0992  0.0555
 9377PP      PP19481  12.533   7.136   7.005  0.0457 -0.0160 -0.1014
 9378PP      PP19482   2.209   2.429  10.167 -0.3379 -0.3898 -0.3244
 9379PP      PP19483  14.522   7.521   8.889 -0.0429  0.1153  0.1018
 9380PP      PP19484   2.477   2.073   9.902  0.0026 -0.1665 -0.1239
 9381PP      PP19485   8.316   2.621   4.625 -0.1260  0.2340  0.2915
 9382PP      PP19486  10.717  13.901  11.674 -0.0718 -0.1508  0.2172
 9383PP      PP19487  10.722   2.772   4.565  0.1289  0.4359  0.0186
 9384PP      PP19488   0.019   3.297   9.545  0.2551  0.1366  0.0929
 9385PP      PP19489  11.088   8.730  11.280 -0.1171 -0.0234 -0.0401
 9386PP      PP19490   7.102   8.401   2.853  0.2219  0.1148 -0.0560
 9387PP      PP19491  10.816  10.899   9.656 -0.0652  0.0468 -0.2967
 9388PP      PP19492   3.673   5.828  13.278  0.2152 -0.4291  0.1220
 9389PP      PP19493  10.650   3.701  10.702  0.0609 -0.1772  0.0183
 9390PP      PP19494  15.762  10.006   3.523  0.0391 -0.1691 -0.1654
 9391PP      PP19495  10.978  11.508   0.402 -0.2689  0.0640  0.2096
 9392PP      PP19496   6.773  11.021   1.215  0.0975  0.0050  0.0506
 9393PP      PP19497   1.530   3.641   3.993  0.3028 -0.0431 -0.1596
 9394PP      PP19498   4.563   8.716  11.587 -0.0286  0.0195  0.1360
 9395PP      PP19499  13.046   0.003   1.917  0.0532 -0.2974  0.0565
 9396PP      PP19500   3.035   3.733   2.619  0.0565 -0.0937  0.0201
 9397PP      PP19501  14.299   2.482  11.726  0.0822  0.1649  0.2434
 9398PP      PP19502   8.127   5.441  12.290  0.1863  0.2026 -0.0553
 9399PP      PP19503  13.717  11.486   0.611 -0.0393  0.1427  0.1455
 9400PP      PP19504   8.101   9.900   8.997 -0.1299  0.0592 -0.0826
 9401PP      PP19505   9.348   5.527  10.213 -0.1591  0.2617  0.1720
 9402PP      PP19506  14.462   8.644   0.873 -0.0397 -0.1511 -0.2604
 9403PP      PP19507   9.687   7.167  10.434  0.0044 -0.1494 -0.2941
 9404PP      PP19508  12.078   2.726  10.881  0.1669  0.0185 -0.2240
 9405PP      PP19509  13.692   8.366  12.185  0.1772 -0.0356  0.0761
 9406PP      PP19510   8.211  13.921   4.619 -0.0286  0.0226 -0.2068
 9407PP      PP19511  12.866  12.115   3.699  0.2753 -0.0424  0.0022
 9408PP      PP19512   9.133  14.522   9.352  0.0275 -0.2522 -0.2314
 9409PP      PP19513   6.687  14.255   1.619 -0.0579  0.1209 -0.1134
 9410PP      PP19514   1.632   4.245   9.386 -0.1929 -0.6200 -0.0836
 9411PP      PP19515  11.815   4.585   2.021  0.1750 -0.2864  0.0010
 9412PP      PP19516   2.769  11.644   9.869 -0.2099 -0.0511  0.2119
 9413PP      PP19517   5.900  14.890   1.900  0.2919 -0.2782  0.2007
 9414PP      PP19518  15.006   9.129   9.789 -0.5421 -0.0578 -0.1288
 9415PP      PP19519   7.013  14.813   1.585  0.0589  0.2673 -0.0207
 9416PP      PP19520   1.633   3.053   3.917  0.0157 -0.2007  0.1928
 9417PP      PP19521   2.732  12.521  11.347 -0.0971 -0.0276  0.1311
 9418PP      PP19522  13.850   4.520   2.976  0.0466  0.1075 -0.0428
 9419PP      PP19523  11.580  14.382  10.906  0.1304 -0.0872 -0.1697
 9420PP      PP19524  14.348   5.525  10.343 -0.1563  0.0654 -0.1727
 9421PP      PP19525   6.885   6.691  10.244 -0.2320 -0.1733  0.2624
 9422PP      PP19526   2.858   4.231  11.867  0.4151 -0.1372 -0.0768
 9423PP      PP19527   2.215  12.038   2.946  0.1023  0.1391  0.1615
 9424PP      PP19528   4.621  11.197   9.141  0.0595  0.4980 -0.0370
 9425PP      PP19529   3.793  14.175  13.344  0.1371 -0.1156 -0.0344
 9426PP      PP19530   8.098   4.807  10.314  0.2942  0.1319 -0.1467
 9427PP      PP19531  11.368   0.851   0.402 -0.0697 -0.1246  0.2019
 9428PP      PP19532   1.873   2.030  13.532  0.0212 -0.0044 -0.1218
 9429PP      PP19533  12.389  15.803  11.517  0.4581 -0.1424  0.1296
 9430PP      PP19534   0.911  14.686   0.894  0.0474 -0.0897  0.0712
 9431PP      PP19535  13.106  14.165   9.186  0.1206 -0.0888  0.3577
 9432PP      PP19536   1.031  15.026   8.858  0.5546 -0.1196  0.0418
 9433PP      PP19537  13.944   9.442   3.196  0.2618  0.2979 -0.3408
 9434PP      PP19538   7.921   0.654  10.599 -0.0539  0.2016  0.2198
 9435PP      PP19539   0.075  12.613  11.569  0.0483  0.1947 -0.0349
 9436PP      PP19540  14.880   3.668   1.484 -0.0750 -0.0356 -0.1963
 9437PP      PP19541   4.972   4.784  11.831 -0.0103 -0.0733 -0.0992
 9438PP      PP19542  12.187   4.631  10.619  0.1240 -0.0924 -0.0026
 9439PP      PP19543  12.501   0.235   9.997 -0.0724 -0.0439  0.0635
 9440PP      PP19544   2.600  11.767   2.732 -0.1420  0.1900  0.1194
 9441PP      PP19545  13.636  15.537   4.612  0.1622  0.3496  0.1431
 9442PP      PP19546  14.831   4.285  11.137 -0.1109  0.1146  0.2133
 9443PP      PP19547   2.261   3.359   3.345  0.0068  0.0039  0.1715
 9444PP      PP19548   4.023   1.084  10.823 -0.0910 -0.1089  0.1158
 9445PP      PP19549   6.327   8.947  12.797  0.1008  0.0280 -0.2470
 9446PP      PP19550  14.030  13.550   9.225 -0.1832 -0.0915  0.0192
 9447PP      PP19551   6.304  12.277   4.961 -0.1018  0.1086  0.0707
 9448PP      PP19552  15.363   6.739  10.898  0.1851 -0.1961 -0.0705
 9449PP      PP19553  11.074  10.274   3.440 -0.2162 -0.1142 -0.1241
 9450PP      PP19554  13.247   4.416   8.972  0.0512 -0.2477  0.1478
 9451PP      PP19555   7.332   4.972   1.842  0.0752  0.1099 -0.3618
 9452PP      PP19556  14.218   7.194   0.114  0.0643  0.3827  0.1406
 9453PP      PP19557   9.804   0.680   0.429 -0.0889 -0.0038  0.1056
 9454PP      PP19558  10.244   1.036   5.429 -0.0408 -0.2998 -0.4366
 9455PP      PP19559   3.944   1.470   3.561 -0.2148  0.0947 -0.0528
 9456PP      PP19560   3.620  12.501  11.229  0.0418 -0.0606  0.1314
 9457PP      PP19561   3.280  12.915   1.028 -0.0729  0.2924  0.0483
 9458PP      PP19562   4.468  14.882  10.214 -0.0676  0.3707 -0.0887
 9459PP      PP19563   5.295   9.913   9.458  0.0952 -0.0648  0.2387
 9460PP      PP19564   6.865   5.350   9.599  0.0631 -0.2440  0.0744
 9461PP      PP19565  13.470   3.463   9.655  0.1599  0.0385  0.3621
 9462PP      PP19566  15.152   8.465   9.606 -0.0047 -0.2064 -0.1492
 9463PP      PP19567  15.611   0.519   4.216  0.1531 -0.0011  0.2063
 9464PP      PP19568   0.850  13.517   1.444  0.2524  0.3156  0.0062
 9465PP      PP19569   5.036  10.448   1.854  0.2301  0.0171  0.0760
 9466PP      PP19570  13.351  10.879   9.283 -0.1007 -0.1586  0.0348
 9467PP      PP19571   0.283  11.317   9.216 -0.1438  0.0503 -0.1774
 9468PP      PP19572   6.135  13.073  10.704 -0.0658 -0.0696  0.0329
 9469PP      PP19573  10.601   3.822  11.995  0.0123  0.0706  0.0996
 9470PP      PP19574  12.632  11.042   3.210  0.0601 -0.2659 -0.1081
 9471PP      PP19575   1.962   9.462   1.994  0.0757 -0.0552 -0.0676
 9472PP      PP19576   5.408  11.477   0.364 -0.1824  0.0174 -0.1351
 9473PP      PP19577  12.925  15.535   0.990 -0.0519 -0.3836  0.0692
 9474PP      PP19578   8.044   4.691   8.725  0.1783 -0.1612  0.0387
 9475PP      PP19579   9.425  14.125  11.620  0.0659  0.0201  0.1078
 9476PP      PP19580   2.992   7.843   3.140  0.2399  0.0472  0.0237
 9477PP      PP19581  12.372   6.026  10.136 -0.1898  0.0824 -0.4050
 9478PP      PP19582   9.416   3.354  12.288 -0.0265 -0.0918 -0.1508
 9479PP      PP19583   0.612   4.383   9.824 -0.0632  0.0284 -0.0586
 9480PP      PP19584   8.867   6.329   9.938 -0.0393  0.0156  0.0836
 9481PP      PP19585   8.048   0.743  12.270 -0.1357  0.1149 -0.2817
 9482PP      PP19586  11.912  13.399   1.030  0.1798 -0.3558 -0.5311
 9483PP      PP19587  13.263   5.950   3.510  0.3761  0.1851 -0.3421
 9484PP      PP19588  15.816  15.514   0.377  0.1244  0.0506 -0.1620
 9485PP      PP19589  15.830   8.803   1.951  0.2222 -0.1409  0.2301
 9486PP      PP19590   2.230   7.277   2.841  0.3064  0.1016  0.2423
 9487PP      PP19591  13.239   8.890   2.289  0.1689 -0.3278  0.1048
 9488PP      PP19592   4.383   6.571   1.550  0.2496  0.0274  0.2300
 9489PP      PP19593  15.729   3.141   1.489  0.0189 -0.1926 -0.0398
 9490PP      PP19594  13.710  11.455  12.747  0.1963 -0.2834 -0.2271
 9491PP      PP19595   4.406   4.121  10.974 -0.3430 -0.2899 -0.2071
 9492PP      PP19596  15.513   5.718  10.540  0.1989  0.1470  0.2762
 9493PP      PP19597  12.600  13.068  10.702  0.2398  0.0751  0.0877
 9494PP      PP19598   5.430   2.389  11.214 -0.2196  0.2270 -0.1785
 9495PP      PP19599   1.214   2.724   1.181 -0.2476 -0.3368 -0.0903
 9496PP      PP19600   3.605   0.017  11.470  0.0999 -0.1448 -0.2274
 9497PP      PP19601   8.428  14.895   0.331 -0.3634 -0.5745 -0.2430
 9498PP      PP19602  11.900  12.621   8.798  0.0274  0.2622 -0.2335
 9499PP      PP19603   1.208   6.582   9.933  0.0391 -0.0705  0.0748
 9500PP      PP19604  14.261  11.180  10.164 -0.0313 -0.0844  0.2186
 9501PP      PP19605   4.709  10.237  13.404  0.0134 -0.2733  0.2310
 9502PP      PP19606   7.668   2.563   3.987  0.2054  0.0959  0.0180
 9503PP      PP19607   7.248   2.073   9.694  0.2316 -0.2846  0.1477
 9504PP      PP19608  15.586   4.048   3.287  0.4263  0.0976 -0.0363
 9505PP      PP19609  11.699   9.355  10.100 -0.1832 -0.3855  0.1370
 9506PP      PP19610   4.261   4.434   2.798 -0.0372  0.1422  0.1673
 9507PP      PP19611   1.987   8.141   2.544 -0.0222 -0.2582 -0.0248
 9508PP      PP19612   4.192   0.747   9.181  0.1913 -0.2754  0.0553
 9509PP      PP19613   6.350   3.191  11.214  0.0075  0.2131  0.1106
 9510PP      PP19614  11.072   6.395  11.563 -0.2167  0.0578 -0.1839
 9511PP      PP19615   7.027  11.338   0.597  0.1200 -0.2011  0.2069
 9512PP      PP19616  12.768   2.222   4.489 -0.2225 -0.2225  0.0557
 9513PP      PP19617   7.057   3.949   9.946  0.3013  0.0480  0.0705
 9514PP      PP19618  13.555   7.523  12.009  0.1580  0.3221 -0.0633
 9515PP      PP19619  10.025  11.955   9.775  0.5322  0.1142 -0.0413
 9516PP      PP19620   8.462  13.282  11.969 -0.0280 -0.0065  0.0244
 9517PP      PP19621   3.458   3.857  12.878  0.2047  0.1992  0.0735
 9518PP      PP19622   2.489   6.770   8.777  0.0927 -0.0625 -0.0472
 9519PP      PP19623   4.429  11.414   2.742  0.0248  0.1459 -0.2187
 9520PP      PP19624  13.763   7.710   2.083 -0.2938 -0.1558  0.1346
 9521PP      PP19625   4.193   5.449   2.533 -0.2186  0.3553  0.2603
 9522PP      PP19626   1.786   7.602  13.298  0.0229 -0.1825  0.0513
 9523PP      PP19627  10.840   0.420  11.579 -0.0699  0.1285  0.1761
 9524PP      PP19628   3.974  12.362  13.175  0.1126  0.0947 -0.0796
 9525PP      PP19629  15.101   1.295  10.900 -0.1717 -0.0244 -0.1835
 9526PP      PP19630   4.733   9.290  11.370  0.1108 -0.2657 -0.3451
 9527PP      PP19631   1.330   9.043   8.191 -0.1021  0.0474 -0.0186
 9528PP      PP19632   3.377   5.292  11.435 -0.1044  0.1368  0.0230
 9529PP      PP19633  15.827   5.338   0.530 -0.2398 -0.0471 -0.2438
 9530PP      PP19634   0.351   3.011   1.932 -0.0290  0.2105 -0.0735
 9531PP      PP19635  10.270  10.812   9.491  0.2407  0.0680 -0.1333
 9532PP      PP19636  10.316   3.198   2.056 -0.2411 -0.3332 -0.0789
 9533PP      PP19637  13.156   1.296  10.796  0.2147 -0.0300  0.0070
 9534PP      PP19638   2.591  13.514   2.711 -0.2176 -0.4250 -0.2128
 9535PP      PP19639   4.729   8.904   1.136  0.0193 -0.0196 -0.1481
 9536PP      PP19640   8.962  13.415   9.368 -0.0956  0.2155 -0.1094
 9537PP      PP19641   6.173   0.860   2.806 -0.0054 -0.2112  0.1367
 9538PP      PP19642  15.177   2.526   3.884 -0.2603 -0.0653  0.0883
 9539PP      PP19643   9.927  13.245  12.107  0.1168 -0.1822 -0.1286
 9540PP      PP19644  15.021   5.353   1.054  0.0962  0.0524  0.0444
 9541PP      PP19645   9.677   5.931   7.559 -0.2097  0.1252  0.0680
 9542PP      PP19646   0.211   7.772   9.095 -0.2086  0.2719  0.1898
 9543PP      PP19647  10.517  12.339   2.294  0.0503  0.1188  0.1014
 9544PP      PP19648  13.386   1.069   0.180  0.2019  0.1852 -0.1321
 9545PP      PP19649   3.437  15.687  11.010  0.1316 -0.2692  0.0066
 9546PP      PP19650  11.681   0.215   0.766 -0.0211 -0.3828  0.0632
 9547PP      PP19651   4.073   1.205  10.269  0.2938  0.2238  0.0586
 9548PP      PP19652   3.546   7.996   9.801  0.1131  0.0267 -0.0754
 9549PP      PP19653   8.804   3.529   9.568 -0.2806  0.2493  0.1246
 9550PP      PP19654  10.598   7.792  11.356 -0.1469  0.3572  0.0256
 9551PP      PP19655  10.788  14.538   0.050 -0.0891  0.0098  0.0451
 9552PP      PP19656   0.926   3.712   2.262  0.3017  0.4204  0.1532
 9553PP      PP19657  10.167  15.875  10.575  0.0232 -0.2459 -0.0143
 9554PP      PP19658  14.487  15.427   2.476 -0.2016 -0.1853  0.2275
 9555PP      PP19659  14.401  10.765   3.191 -0.1200  0.0074  0.2463
 9556PP      PP19660   6.623  14.812  11.836 -0.2469 -0.0377 -0.0870
 9557PP      PP19661   7.982  11.900  11.134 -0.0455 -0.2493 -0.2986
 9558PP      PP19662  12.031   4.491  12.358  0.0820  0.0998  0.1204
 9559PP      PP19663  11.055   1.547   2.174  0.0800  0.0530 -0.1178
 9560PP      PP19664  13.260  13.929   4.748 -0.0587 -0.1524  0.1414
 9561PP      PP19665  14.872   1.568   2.827 -0.0180  0.3112  0.0338
 9562PP      PP19666  13.859   6.933   9.220 -0.1281 -0.1670  0.1231
 9563PP      PP19667   9.496  10.154   3.711 -0.0874  0.2104  0.0142
 9564PP      PP19668   6.726   7.258   9.967 -0.1747 -0.0102  0.1231
 9565PP      PP19669   9.237  13.223  10.699 -0.1877 -0.1284 -0.0049
 9566PP      PP19670   3.412   0.727   2.239 -0.0020  0.0042 -0.5073
 9567PP      PP19671  14.030  10.091   9.825 -0.0756  0.1522 -0.2502
 9568PP      PP19672   6.856   8.967  10.862 -0.0479 -0.1828 -0.0015
 9569PP      PP19673   5.698   4.001   3.566 -0.1057 -0.3557  0.0987
 9570PP      PP19674   3.576   1.859  12.254 -0.0821 -0.0809  0.0755
 9571PP      PP19675   7.350   2.109   0.354  0.4572  0.1006 -0.0357
 9572PP      PP19676  11.223   0.090   9.800  0.0384  0.0475  0.1793
 9573PP      PP19677   9.156   9.794   0.961  0.1669 -0.4388 -0.1841
 9574PP      PP19678  11.357  15.371   3.505 -0.2519 -0.5129 -0.1201
 9575PP      PP19679   6.169   4.451   1.498  0.2420 -0.4263 -0.0462
 9576PP      PP19680   4.428   0.105   9.452  0.2115 -0.4374 -0.1140
 9577PP      PP19681   4.149  15.517  10.663  0.0959  0.2063  0.3559
 9578PP      PP19682  10.604  15.731  10.934 -0.0921 -0.2693  0.1148
 9579PP      PP19683   5.434   6.627  12.733 -0.2382 -0.4544  0.3166
 9580PP      PP19684   6.082   2.046   2.966  0.1996 -0.0058 -0.1837
 9581PP      PP19685  12.872   3.863   3.479 -0.1458 -0.1314  0.0857
 9582PP      PP19686   4.896   3.229  10.182 -0.3105 -0.2075 -0.0821
 9583PP      PP19687   0.063   0.535   1.179  0.3633 -0.1853  0.0336
 9584PP      PP19688  13.996   1.888  12.809  0.0817 -0.2904  0.0883
 9585PP      PP19689  10.441  12.614   3.679 -0.3260  0.0972  0.1411
 9586PP      PP19690  15.004   5.485   8.757 -0.1444  0.2369  0.0233
 9587PP      PP19691  14.068   4.655   8.986  0.0512 -0.2336  0.1152
 9588PP      PP19692   1.657  13.241  10.508 -0.0915  0.0219 -0.0944
 9589PP      PP19693   3.994   3.990   3.419 -0.2057 -0.3864  0.0130
 9590PP      PP19694  11.322  12.910   9.581  0.6009 -0.2473  0.1686
 9591PP      PP19695   3.687   1.677  10.281 -0.0304 -0.2462  0.2520
 9592PP      PP19696   5.211  14.729   3.101  0.1567 -0.0045  0.0835
 9593PP      PP19697   3.910   6.373   2.327  0.0314  0.3111  0.4326
 9594PP      PP19698  15.494   5.025   9.368  0.0238 -0.0662  0.1996
 9595PP      PP19699  10.683   4.660   9.726 -0.0561 -0.2105  0.0380
 9596PP      PP19700   6.056   8.603   8.649 -0.1350  0.0601 -0.0163
 9597PP      PP19701   9.472  15.495   4.694 -0.1331 -0.0565 -0.0610
 9598PP      PP19702   6.727   7.645   0.889  0.0410  0.0790  0.0122
 9599PP      PP19703   5.605   7.658   8.486  0.1058 -0.2362 -0.4964
 9600PP      PP19704   6.894  15.304   4.542  0.0626 -0.1381  0.2842
 9601PP      PP19705  11.588  11.867   3.220 -0.1680  0.1316 -0.3950
 9602PP      PP19706   8.837   1.341   3.511 -0.0512 -0.4635  0.0019
 9603PP      PP19707  12.391   3.715  12.057 -0.0471  0.2202 -0.2867
 9604PP      PP19708   8.442  14.976  11.690 -0.1741 -0.0120  0.1237
 9605PP      PP19709   4.472  12.165   1.267  0.0223  0.2111 -0.0982
 9606PP      PP19710   0.109  14.903  13.294  0.0671 -0.6048  0.0170
 9607PP      PP19711   5.898   6.754  13.012 -0.4516 -0.5644 -0.4113
 9608PP      PP19712  12.074   1.890  12.693 -0.0039  0.0242 -0.0603
 9609PP      PP19713   2.980  11.842  10.378  0.2462 -0.2624  0.0736
 9610PP      PP19714  13.464  12.873   2.644 -0.0456 -0.1385  0.0619
 9611PP      PP19715   0.404  13.185   1.604  0.1444  0.1012 -0.1080
 9612PP      PP19716   6.038   8.459   1.661  0.2433  0.5691  0.0386
 9613PP      PP19717  11.226   5.412   0.965  0.3411 -0.2099 -0.0017
 9614PP      PP19718   1.707  12.993  11.303 -0.2476 -0.2122  0.0856
 9615PP      PP19719   3.933  10.961   3.908  0.4333  0.0473  0.0877
 9616PP      PP19720   7.394  14.451   9.649 -0.0738 -0.1223 -0.0233
 9617PP      PP19721   2.515   6.422   3.438 -0.0327 -0.4135  0.2433
 9618PP      PP19722   2.369  12.007  10.027  0.1009  0.2183 -0.3643
 9619PP      PP19723  10.361   5.305   8.193 -0.2200  0.0731  0.0542
 9620PP      PP19724  10.757  10.841  11.152 -0.2018 -0.3116 -0.0755
 9621PP      PP19725   4.697   8.001   2.815  0.1177  0.3051 -0.2809
 9622PP      PP19726  14.457   5.890  12.763  0.0791  0.0383 -0.2378
 9623PP      PP19727   1.310   5.954  11.745  0.1612 -0.5008 -0.0988
 9624PP      PP19728   5.396  15.060   9.361 -0.4100  0.1355 -0.0289
 9625PP      PP19729  12.141   1.352   0.100  0.3360 -0.1341 -0.1749
 9626PP      PP19730  15.647   4.748   8.368  0.1409  0.2713  0.0353
 9627PP      PP19731  11.828  15.618   2.814  0.0701  0.2643  0.1993
 9628PP      PP19732  13.420   0.669   9.941 -0.2938 -0.2862  0.1419
 9629PP      PP19733   6.912  13.250  11.187 -0.2179  0.1060  0.0036
 9630PP      PP19734   7.273  13.336  12.529 -0.2630  0.0910 -0.2786
 9631PP      PP19735   1.355   2.295   4.075 -0.1300 -0.0337  0.0296
 9632PP      PP19736   7.854   2.287  12.870 -0.0842 -0.0827 -0.1891
 9633PP      PP19737   0.612   1.964  13.468 -0.1419 -0.0084 -0.1749
 9634PP      PP19738  10.967   6.122  12.631  0.3437  0.1187  0.0676
 9635PP      PP19739   8.378   9.187   4.063  0.1633  0.1255 -0.0985
 9636PP      PP19740   9.902  11.800   1.855  0.0202 -0.0075  0.0668
 9637PP      PP19741   3.671   0.848   3.324  0.0486 -0.1434 -0.5391
 9638PP      PP19742  11.036   4.985   1.109 -0.1686  0.3254 -0.1400
 9639PP      PP19743   1.125  14.720   0.253 -0.0753  0.0766 -0.5092
 9640PP      PP19744  10.199   6.205   1.155  0.1342 -0.1791  0.0638
 9641PP      PP19745   2.570   4.885  11.049 -0.4149  0.1500 -0.1074
 9642PP      PP19746  12.198   6.809  11.710  0.0551  0.1101 -0.0839
 9643PP      PP19747  12.054   7.365   1.468 -0.0099  0.0649 -0.0441
 9644PP      PP19748   6.726  15.361  10.962  0.0298  0.0704  0.0241
 9645PP      PP19749   5.547   8.093   8.756 -0.0941  0.0145  0.1221
 9646PP      PP19750   0.195   9.795   1.333 -0.2111  0.1660  0.0825
 9647PP      PP19751   7.500   2.862   2.511  0.0718 -0.0605  0.1356
 9648PP      PP19752   7.516   0.190   0.317  0.2311  0.2142  0.0229
 9649PP      PP19753   2.928   6.243   9.392 -0.4259  0.1371  0.2695
 9650PP      PP19754   6.531   7.761  10.012  0.0661  0.0132  0.2411
 9651PP      PP19755   8.698  15.880   1.210 -0.0435  0.0184 -0.0932
 9652PP      PP19756   6.103   0.534  12.214  0.0671 -0.1336  0.0416
 9653PP      PP19757   4.169  14.896   9.202 -0.0415 -0.2231  0.0636
 9654PP      PP19758   7.834  12.308  10.615 -0.2183  0.3099  0.2523
 9655PP      PP19759   7.432   0.795   2.077  0.1954 -0.0932 -0.0935
 9656PP      PP19760   8.802   5.250  12.229 -0.1505  0.1808 -0.1464
 9657PP      PP19761   5.152  13.392   2.570  0.1827 -0.1161 -0.0467
 9658PP      PP19762   2.030   1.484  11.041 -0.0897 -0.2038  0.0175
 9659PP      PP19763  15.555   2.222  10.718 -0.0759  0.1073 -0.1538
 9660PP      PP19764  15.663   9.124   3.071  0.1220 -0.1586 -0.2263
 9661PP      PP19765   6.050   7.766   2.354 -0.0542 -0.1055 -0.0029
 9662PP      PP19766   1.078  15.820  13.460 -0.0552  0.0505  0.2011
 9663PP      PP19767   7.445   3.227  10.369 -0.0571  0.1833 -0.0831
 9664PP      PP19768  10.361   8.288   0.714 -0.3730 -0.0164  0.1253
 9665PP      PP19769  13.266  13.544  12.527  0.1194  0.0143 -0.2730
 9666PP      PP19770  13.300   3.702   1.034 -0.4613  0.1477 -0.2531
 9667PP      PP19771  10.103   2.695  13.515 -0.1055 -0.2303 -0.0746
 9668PP      PP19772  13.742  10.117   9.138 -0.1417  0.2920  0.4033
 9669PP      PP19773   9.362   0.290   4.317 -0.3031  0.1362  0.3067
 9670PP      PP19774  10.570   2.851  10.228 -0.2414  0.0963  0.0797
 9671PP      PP19775  11.695  13.964  11.834  0.1014  0.0584 -0.1404
 9672PP      PP19776   9.267   8.009   0.671  0.2320  0.1684 -0.0009
 9673PP      PP19777   6.272   1.891  10.340  0.1979 -0.2023 -0.1211
 9674PP      PP19778   4.421   5.943  11.152 -0.5452  0.1757 -0.0912
 9675PP      PP19779   4.083  15.366   1.281  0.0043  0.3720 -0.0331
 9676PP      PP19780   4.701   6.446  10.346  0.0006 -0.2645  0.4103
 9677PP      PP19781   0.457   8.328  13.350  0.2234  0.0515  0.0272
 9678PP      PP19782   6.064   7.071  12.530 -0.1511  0.0434 -0.1909
 9679PP      PP19783   2.234  14.821  10.743 -0.0674 -0.0949  0.1223
 9680PP      PP19784  15.415   8.267  13.463  0.0699  0.0027 -0.3507
 9681PP      PP19785   1.299   8.779   0.974  0.1532 -0.2063  0.0929
 9682PP      PP19786  12.010  11.149   1.343  0.1684 -0.0820 -0.0554
 9683PP      PP19787  10.941   8.523   1.079 -0.2282  0.2799  0.2149
 9684PP      PP19788   9.089  14.916  12.890  0.1610  0.0739  0.0632
 9685PP      PP19789   6.812  15.641  10.526  0.2699  0.1514 -0.2106
 9686PP      PP19790   7.475   7.018   4.104  0.0022 -0.1265  0.2794
 9687PP      PP19791  11.434   7.455  10.183 -0.1556 -0.0537  0.1033
 9688PP      PP19792  11.021  11.531   2.494  0.1333  0.1718 -0.0201
 9689PP      PP19793   1.385   9.968   9.967  0.0284 -0.3470  0.2021
 9690PP      PP19794   7.525   4.965   2.343  0.0224 -0.1069  0.1313
 9691PP      PP19795   5.427  14.503  10.107  0.0755  0.2292 -0.3427
 9692PP      PP19796   1.020  15.495  13.072  0.3481 -0.0661 -0.2369
 9693PP      PP19797   4.850   5.270   3.147  0.1816 -0.3211  0.1741
 9694PP      PP19798   7.172   6.359  12.511  0.1570  0.0477 -0.0237
 9695PP      PP19799   4.685   4.029   1.553 -0.1962 -0.1765 -0.0868
 9696PP      PP19800   7.116   3.403  10.784 -0.0643  0.1088  0.0284
 9697PP      PP19801   3.648   6.163   1.145  0.3454  0.0246 -0.0166
 9698PP      PP19802   0.278  14.403   1.494  0.4137  0.1804 -0.2731
 9699PP      PP19803  11.410  13.528   9.297  0.4246 -0.1647  0.0934
 9700PP      PP19804  10.050   0.906   0.855 -0.1343 -0.0379  0.1663
 9701PP      PP19805   3.809   3.807   1.212  0.5143 -0.1876 -0.1604
 9702PP      PP19806  13.881   5.892  13.357 -0.0822 -0.0792 -0.2749
 9703PP      PP19807   3.472  10.339   9.479  0.1941 -0.0771  0.1706
 9704PP      PP19808   1.850  12.644   1.029 -0.0364 -0.3783  0.0635
 9705PP      PP19809  11.046  11.465   3.946  0.1411 -0.2476 -0.1117
 9706PP      PP19810   8.016   4.493  12.148  0.2001  0.0601 -0.1592
 9707PP      PP19811  11.710   2.829  11.697 -0.0595  0.0009 -0.0698
 9708PP      PP19812   7.656   6.446  12.211 -0.0013  0.0315 -0.0062
 9709PP      PP19813   0.962   7.818   0.065 -0.2055 -0.3135 -0.0324
 9710PP      PP19814   5.040   7.667  11.166  0.4462 -0.0361 -0.1472
 9711PP      PP19815   2.324   8.656   3.431 -0.3851  0.2581  0.1161
 9712PP      PP19816   1.269   1.339   3.415  0.0790  0.3465 -0.2716
 9713PP      PP19817  12.135  13.124  10.361 -0.0362 -0.1456 -0.1352
 9714PP      PP19818  10.342   7.495   3.444  0.3418  0.1820 -0.0981
 9715PP      PP19819   3.255   1.217  11.169  0.1845 -0.1228  0.0320
 9716PP      PP19820  11.346  13.326  10.308  0.2488 -0.1615 -0.1694
 9717PP      PP19821  14.627   2.333   2.382  0.1006  0.1794  0.0833
 9718PP      PP19822   2.452   4.997   3.416  0.1238 -0.1480 -0.1160
 9719PP      PP19823   8.026  13.560  10.705  0.0817  0.1303  0.1681
 9720PP      PP19824  11.798  11.253  12.162  0.2529  0.1480 -0.0362
 9721PP      PP19825   0.428  13.133  12.811 -0.0535 -0.0218  0.1115
 9722PP      PP19826   1.970   0.834   1.302  0.2000 -0.4297  0.0636
 9723PP      PP19827   3.426  12.920  10.323  0.1243 -0.0215  0.2178
 9724PP      PP19828   8.587  10.121   9.187  0.3052  0.1515 -0.2703
 9725PP      PP19829   5.753   1.207   3.279 -0.2076 -0.0106 -0.1608
 9726PP      PP19830   8.534   3.841   8.626  0.1941 -0.1285 -0.3210
 9727PP      PP19831   6.189   5.255  10.781  0.1792  0.1971  0.2225
 9728PP      PP19832   3.703   4.954  11.769  0.1096 -0.3472 -0.1417
 9729PP      PP19833  11.894  10.959  11.725  0.2655  0.1812 -0.0021
 9730PP      PP19834   9.766   6.219   2.958 -0.2670 -0.3334 -0.2689
 9731PP      PP19835   0.795   3.930   9.579 -0.0428 -0.0726 -0.0462
 9732PP      PP19836   8.356   0.400  12.026  0.0742  0.0861 -0.1974
 9733PP      PP19837  11.190   1.091   2.910  0.0116 -0.1418  0.1186
 9734PP      PP19838   2.569   3.531   2.886 -0.3024 -0.1539  0.1156
 9735PP      PP19839   8.559   3.674  10.979 -0.0227  0.1421  0.0557
 9736PP      PP19840   1.911  15.100  13.058  0.3105 -0.2495 -0.2034
 9737PP      PP19841   1.017   9.860  10.326  0.2786 -0.0119 -0.0064
 9738PP      PP19842  15.681   6.105   2.843  0.1931  0.1722 -0.1026
 9739PP      PP19843   6.111  12.426   9.195  0.1086  0.1399  0.1214
 9740PP      PP19844   2.004   5.376   1.363  0.3420 -0.1087  0.2182
 9741PP      PP19845   8.527   8.035   8.933  0.1009 -0.2536 -0.0904
 9742PP      PP19846  14.371  10.849   0.828  0.1638  0.4247  0.0968
 9743PP      PP19847   1.378  12.605   9.531 -0.2663  0.0747 -0.1116
 9744PP      PP19848   9.676  13.386   0.886 -0.4155 -0.0462 -0.0740
 9745PP      PP19849  12.530   6.322   2.167  0.0815 -0.1424  0.0428
 9746PP      PP19850   8.367   1.766   4.454 -0.0701 -0.0239 -0.0080
 9747PP      PP19851  11.027   7.551   0.887 -0.3159  0.1325  0.0567
 9748PP      PP19852   0.951   3.545   9.277  0.1384  0.1735  0.0836
 9749PP      PP19853   2.766   2.608   1.618  0.1418 -0.0969 -0.2375
 9750PP      PP19854   1.607   6.149   3.133 -0.0642  0.0163 -0.0094
 9751PP      PP19855   4.070   7.664  10.742 -0.1088 -0.1119  0.0908
 9752PP      PP19856   5.504   1.812   2.123 -0.2350 -0.1869 -0.0464
 9753PP      PP19857   0.620   0.814   1.279 -0.3982 -0.1331  0.0243
 9754PP      PP19858   5.684   6.728   1.089 -0.0016 -0.0095 -0.1644
 9755PP      PP19859  15.324  12.089   1.621  0.3292  0.2878 -0.1669
 9756PP      PP19860  12.394  13.375   2.723  0.1527  0.0583 -0.1784
 9757PP      PP19861   8.252   5.273   3.794  0.0476 -0.0717 -0.0292
 9758PP      PP19862   4.734   9.621  10.937 -0.0634  0.2180  0.1458
 9759PP      PP19863  12.308   9.416  11.989 -0.1298 -0.1962 -0.4423
 9760PP      PP19864   8.780   2.307   9.323 -0.1025 -0.2002  0.1902
 9761PP      PP19865  10.001   8.625   3.589  0.1811  0.4905  0.3223
 9762PP      PP19866   4.914   3.906  13.051  0.0708 -0.0130  0.1066
 9763PP      PP19867   2.010  11.336   1.271  0.0977 -0.1415 -0.0906
 9764PP      PP19868  11.993   6.529  12.959 -0.2316 -0.2640  0.0716
 9765PP      PP19869   0.994   5.391   9.647  0.1125  0.0499  0.3240
 9766PP      PP19870   3.794  14.682   3.884 -0.0943 -0.0355  0.0947
 9767PP      PP19871   9.606   2.790  13.504 -0.0217  0.1701 -0.0368
 9768PP      PP19872   5.134  13.778   4.270 -0.0492 -0.0973  0.1963
 9769PP      PP19873   1.804  14.515  11.483 -0.2064  0.4212 -0.2874
 9770PP      PP19874   7.001  10.252   4.791 -0.2020  0.1848 -0.0738
 9771PP      PP19875  12.976   8.830   0.678  0.0842 -0.0508 -0.1726
 9772PP      PP19876   4.992  10.070  12.014 -0.0542 -0.1771  0.0987
 9773PP      PP19877  15.509  15.411   8.569 -0.2856  0.2716 -0.1786
 9774PP      PP19878  11.928   7.366   7.533  0.0930  0.0946 -0.2277
 9775PP      PP19879  12.023   2.797  13.174 -0.1852 -0.1817  0.0869
 9776PP      PP19880  14.025  13.771   3.426 -0.2170 -0.0721  0.3225
 9777PP      PP19881  11.564   1.849   2.895 -0.1416  0.2339 -0.0165
 9778PP      PP19882  15.262   9.228   3.389  0.0378 -0.0971  0.2095
 9779PP      PP19883   1.305   4.657   1.404 -0.1089  0.2195  0.1456
 9780PP      PP19884   7.731   6.947   2.759  0.1748 -0.1135  0.0437
 9781PP      PP19885   9.688  15.709  12.557 -0.2052  0.0051 -0.0384
 9782PP      PP19886   6.376   2.916  10.236  0.2006 -0.1083 -0.1220
 9783PP      PP19887   9.474   4.271   1.980  0.2221 -0.1476 -0.1705
 9784PP      PP19888   0.579   5.161   2.794  0.0958 -0.2187  0.1542
 9785PP      PP19889   3.553   0.855   1.769 -0.2096 -0.0837  0.2640
 9786PP      PP19890   4.068   7.052  13.379 -0.0009  0.2650 -0.4451
 9787PP      PP19891  11.111   1.897  10.475  0.1809  0.1361 -0.1596
 9788PP      PP19892  10.384  15.389  13.006 -0.1868 -0.1003 -0.3356
 9789PP      PP19893  10.082   4.545  11.831 -0.3333  0.2095  0.2841
 9790PP      PP19894   8.214   6.001   0.423  0.1147 -0.2020 -0.0294
 9791PP      PP19895  12.064  15.782   9.967  0.3050  0.0733 -0.1220
 9792PP      PP19896   7.945   9.078   2.082  0.0441  0.2704 -0.4168
 9793PP      PP19897   0.765   4.338  12.099  0.0045 -0.3276  0.0881
 9794PP      PP19898   2.827   3.657  11.001  0.0832  0.3838  0.0659
 9795PP      PP19899   6.933  14.517  11.588  0.0008 -0.0731  0.1271
 9796PP      PP19900   8.157  15.093  10.989  0.2210  0.3232 -0.0840
 9797PP      PP19901   9.515  14.005  12.708 -0.0431  0.0636 -0.0294
 9798PP      PP19902   5.683   5.444   2.568  0.0489  0.0258  0.3175
 9799PP      PP19903   2.223   1.674   9.911  0.1828  0.2354 -0.0998
 9800PP      PP19904   2.246   1.248  10.181 -0.0117  0.3515 -0.1687
 9801PP      PP19905  10.836   7.004   9.036 -0.1654  0.0217  0.1779
 9802PP      PP19906   2.325   9.046  12.199 -0.0205  0.5263 -0.0097
 9803PP      PP19907   0.516   4.915   0.962  0.3670  0.0748 -0.1673
 9804PP      PP19908  13.502   3.997  12.318 -0.3084  0.2619 -0.4602
 9805PP      PP19909   2.254  13.992   4.026  0.1212  0.0526 -0.0002
 9806PP      PP19910   6.860  15.767  13.004 -0.1363  0.1806  0.1032
 9807PP      PP19911   8.147   6.388   3.425  0.2296 -0.2571 -0.0797
 9808PP      PP19912  15.015   3.327   4.110 -0.2545  0.2822  0.1758
 9809PP      PP19913  13.850  10.533   9.567 -0.0578  0.2608  0.0455
 9810PP      PP19914  10.104  11.459   1.041 -0.2777  0.1534 -0.1336
 9811PP      PP19915  11.557   0.202   4.276  0.0058  0.1265 -0.1022
 9812PP      PP19916   7.092   7.305  10.367  0.1951 -0.1342  0.0754
 9813PP      PP19917   8.931   7.076  12.705 -0.0335 -0.2453  0.1360
 9814PP      PP19918   7.114   0.823   9.221 -0.1438  0.0806 -0.3001
 9815PP      PP19919  13.770  13.234   2.815  0.1150 -0.0303 -0.0072
 9816PP      PP19920  11.454   0.980   1.220 -0.1373 -0.2209 -0.1028
 9817PP      PP19921   4.759   0.859   2.318 -0.0278  0.1356 -0.0288
 9818PP      PP19922   5.609  12.890  11.631 -0.2562 -0.0246 -0.0036
 9819PP      PP19923  12.263  10.706  11.467  0.3069 -0.0568 -0.1194
 9820PP      PP19924   0.073   0.145  10.230  0.0361 -0.0013 -0.3592
 9821PP      PP19925  13.813   4.210   3.509  0.1769  0.4060  0.0489
 9822PP      PP19926   0.931  15.029  12.925  0.0298  0.2206  0.0988
 9823PP      PP19927  13.562   7.535   9.017  0.0729 -0.2208  0.1292
 9824PP      PP19928   7.541   8.641  13.354  0.1771  0.0491  0.2303
 9825PP      PP19929  15.400   5.193  11.886 -0.0211  0.0215  0.0952
 9826PP      PP19930   3.364  13.449  12.060 -0.0172 -0.0081  0.0986
 9827PP      PP19931   3.146   4.716  10.063  0.0007 -0.2939 -0.3932
 9828PP      PP19932   2.971   7.240  12.366 -0.2000 -0.1326  0.2942
 9829PP      PP19933   5.924  11.117   0.863 -0.0885 -0.3778  0.1114
 9830PP      PP19934  15.196   4.463   9.842  0.1844 -0.1413  0.0115
 9831PP      PP19935  11.392   0.820  10.741  0.0020  0.3007  0.3290
 9832PP      PP19936  12.485   6.264   8.113  0.1633 -0.0554  0.0317
 9833PP      PP19937  14.085   4.999   9.346  0.0495 -0.1549  0.3063
 9834PP      PP19938  12.413  15.523   4.128 -0.1422 -0.3807  0.0187
 9835PP      PP19939   6.998  14.899   4.250  0.1503  0.1602  0.0926
 9836PP      PP19940   5.207   8.028   2.005 -0.2644  0.1675 -0.1684
 9837PP      PP19941   1.072  15.727  12.523 -0.0265 -0.0445  0.0769
 9838PP      PP19942   4.442  15.513   3.838  0.2646 -0.3093  0.1447
 9839PP      PP19943   6.607  11.597   2.687 -0.2777 -0.1862 -0.0668
 9840PP      PP19944   4.687  14.065   0.587 -0.2854  0.2064  0.0408
 9841PP      PP19945   3.172  14.376  12.073 -0.0133 -0.1148 -0.3851
 9842PP      PP19946  15.384   9.828   0.553 -0.0041 -0.0577 -0.0237
 9843PP      PP19947   8.608  14.053   9.951  0.0219  0.1318 -0.2684
 9844PP      PP19948   2.213   9.565   0.765  0.0969 -0.0590 -0.2639
 9845PP      PP19949  12.577   9.345  10.318  0.0187  0.0656 -0.4295
 9846PP      PP19950   5.395   0.462  11.827  0.0097 -0.2298 -0.1630
 9847PP      PP19951   2.643   4.243  11.065  0.2279  0.0363 -0.2695
 9848PP      PP19952  12.514   7.919   9.793  0.1347 -0.2564 -0.0675
 9849PP      PP19953   6.420   8.602   3.652  0.2286 -0.1332 -0.0525
 9850PP      PP19954  10.780   7.294   2.234  0.2934  0.0645  0.0936
 9851PP      PP19955   8.888   8.144   0.945 -0.0999 -0.2116 -0.2428
 9852PP      PP19956   0.201   3.564  12.151 -0.0456  0.0731  0.3367
 9853PP      PP19957  11.517   7.169   3.677 -0.3384  0.0504  0.2309
 9854PP      PP19958   9.893   8.932   3.175 -0.0794 -0.2054  0.1390
 9855PP      PP19959  15.680  15.549  12.366  0.2780  0.2422  0.1272
 9856PP      PP19960   4.288  10.069  11.030  0.0303 -0.0802  0.0888
 9857PP      PP19961  10.981  15.542  11.771  0.0018  0.1286  0.2116
 9858PP      PP19962  10.575   9.664   0.730 -0.0885  0.1332  0.5699
 9859PP      PP19963   8.915  15.639   0.011 -0.0323  0.1885  0.1779
 9860PP      PP19964  11.932   9.880   0.984 -0.1407  0.3192  0.4494
 9861PP      PP19965  12.352   7.378   7.895 -0.0744  0.0613 -0.0035
 9862PP      PP19966  13.592  15.400   2.361 -0.1289 -0.1136 -0.1405
 9863PP      PP19967   4.868   2.544  12.673 -0.0670  0.2503 -0.0274
 9864PP      PP19968   8.832  10.692  13.408  0.0568  0.2154 -0.0463
 9865PP      PP19969   1.625  12.422  12.121  0.0393 -0.0744 -0.0468
 9866PP      PP19970   8.034   3.934  12.545  0.2838  0.0718  0.5535
 9867PP      PP19971   4.148  15.149   1.762  0.0573  0.3686 -0.1485
 9868PP      PP19972  13.929   8.486   2.378  0.0868 -0.0043  0.3541
 9869PP      PP19973   6.107   5.285   2.831  0.0647  0.1781  0.1913
 9870PP      PP19974  12.464   5.694   3.477  0.0388 -0.0792  0.3297
 9871PP      PP19975  11.886  12.295  13.383  0.2762 -0.1724 -0.1924
 9872PP      PP19976  10.907   9.941   9.145 -0.1212 -0.2168  0.2464
 9873PP      PP19977  13.153   5.465  10.251 -0.0593  0.1258  0.1244
 9874PP      PP19978   3.563   4.638   1.100  0.0568 -0.3410  0.1161
 9875PP      PP19979  14.079   5.956   0.895 -0.0383  0.0504  0.1325
 9876PP      PP19980   6.167  13.735   3.030 -0.1122 -0.1348 -0.3128
 9877PP      PP19981  10.284  10.944   2.494 -0.0103 -0.0450  0.1000
 9878PP      PP19982   4.288  14.238  11.073 -0.2978 -0.2077 -0.0627
 9879PP      PP19983   9.021   9.456  11.589 -0.2297 -0.2888 -0.2174
 9880PP      PP19984   8.576  12.779  12.653  0.0779 -0.0576 -0.0547
 9881PP      PP19985   4.986   3.833   0.544  0.1101  0.0297  0.1714
 9882PP      PP19986   9.953  14.202   1.717 -0.0518  0.0994  0.3486
 9883PP      PP19987  13.402   8.039   1.872  0.2034 -0.2735  0.2755
 9884PP      PP19988   0.076   3.807   0.547 -0.0446  0.1498 -0.1943
 9885PP      PP19989  12.423   5.816   0.178  0.4187  0.2279 -0.2879
 9886PP      PP19990   6.957   0.851   1.866 -0.0587 -0.2678  0.0025
 9887PP      PP19991  12.486   1.306  11.958  0.1770  0.2400  0.1507
 9888PP      PP19992  11.486   8.224   7.770  0.1279 -0.0443  0.2554
 9889PP      PP19993   8.725  13.470  11.459  0.0362  0.2152  0.2571
 9890PP      PP19994   9.422   4.033   3.310  0.0177  0.1097  0.1594
 9891PP      PP19995   5.767   0.178   8.912  0.0286  0.3086  0.1077
 9892PP      PP19996   2.315  10.459  11.390 -0.2294 -0.3212 -0.1392
 9893PP      PP19997   1.158   4.751  12.794 -0.0545  0.1553 -0.0642
 9894PP      PP19998   9.615  14.771   3.113 -0.4540 -0.1067  0.2301
 9895PP      PP19999   9.151   7.689   9.367 -0.0474  0.3007 -0.1665
 9896PP      PP20000   7.040   7.980   1.180  0.1903  0.0643  0.0252
 9897PP      PP20001  14.480  15.048  10.846  0.0820  0.0979  0.0762
 9898PP      PP20002   9.846   5.939   2.046  0.0737 -0.0721 -0.3558
 9899PP      PP20003  15.262  14.519   4.129  0.2147 -0.0520  0.1716
 9900PP      PP20004   4.704  12.096   9.808  0.0755  0.4974  0.0105
 9901PP      PP20005  15.206   8.398   4.320  0.1613 -0.1973  0.3348
 9902PP      PP20006   9.156   1.555   2.161  0.0771  0.2965 -0.3626
 9903PP      PP20007  13.704   6.339  11.425 -0.2525  0.0616  0.0580
 9904PP      PP20008  14.160   3.802  10.351  0.2110 -0.3755  0.1988
 9905PP      PP20009  15.005  15.264  10.218 -0.0038 -0.1342  0.1600
 9906PP      PP20010   1.002   2.370   1.992 -0.0200 -0.1542 -0.1628
 9907PP      PP20011   7.441   4.653   3.517  0.0030  0.2091 -0.3247
 9908PP      PP20012  13.963   3.267  11.037  0.0700  0.0589  0.3564
 9909PP      PP20013  15.499   9.311   9.521 -0.2793 -0.0965 -0.0855
 9910PP      PP20014   2.662   8.818  10.005 -0.2876  0.0360  0.3506
 9911PP      PP20015   9.215   2.911  11.321 -0.1404  0.1656 -0.2218
 9912PP      PP20016   8.402   6.333  12.615 -0.1060 -0.0905  0.0493
 9913PP      PP20017   8.573   6.141   2.581  0.3019  0.1600 -0.0924
 9914PP      PP20018  12.583   3.037   8.968  0.1033  0.2194  0.2632
 9915PP      PP20019  11.854   2.154  11.022 -0.1167 -0.0108 -0.2402
 9916PP      PP20020   6.734   6.034   2.787  0.0940 -0.1760 -0.0447
 9917PP      PP20021   8.068   8.734   8.921  0.0126 -0.2775  0.2362
 9918PP      PP20022   3.078   3.057   4.845 -0.2097  0.0484  0.0088
 9919PP      PP20023  10.802   7.696  10.185 -0.0647 -0.2454 -0.0097
 9920PP      PP20024   8.424   3.252   9.384  0.0956  0.0974  0.0254
 9921PP      PP20025  13.538  14.071  12.722  0.2279 -0.0985  0.2021
 9922PP      PP20026   4.498  14.709   9.554 -0.2426 -0.0586 -0.0728
 9923PP      PP20027  14.094  15.002   0.389  0.0202  0.0289 -0.0427
 9924PP      PP20028   5.836   8.392   9.037  0.2115  0.3596 -0.3334
 9925PP      PP20029   7.390   9.108  11.306 -0.1180 -0.1063 -0.0731
 9926PP      PP20030   2.704   3.365   0.434 -0.3945 -0.0743 -0.0714
 9927PP      PP20031  11.176   6.692  10.040  0.0282  0.3509  0.2784
 9928PP      PP20032   7.343  14.515   4.346 -0.3007 -0.0956  0.3633
 9929PP      PP20033   8.616   4.541   0.753  0.0312  0.3995  0.1549
 9930PP      PP20034   1.212   9.179  12.919 -0.0841  0.2582  0.1566
 9931PP      PP20035   5.807  15.575  11.374 -0.0883 -0.0146  0.1568
 9932PP      PP20036   9.857  10.539   9.497  0.0558 -0.1530  0.0659
 9933PP      PP20037   2.400   5.360  11.169 -0.1727  0.1362 -0.0925
 9934PP      PP20038  11.947   8.827   8.733  0.2964  0.2087  0.0362
 9935PP      PP20039  13.187  12.525   0.163  0.2239 -0.2286 -0.0691
 9936PP      PP20040   1.720  13.022   0.682  0.3432  0.0138  0.0721
 9937PP      PP20041   8.977   0.876   4.947 -0.1268 -0.1172  0.2107
 9938PP      PP20042   0.859  10.419   0.294 -0.0539 -0.3943  0.0338
 9939PP      PP20043   9.603   5.084   3.863 -0.1083 -0.0306  0.1209
 9940PP      PP20044  13.916  10.688  11.960  0.0914  0.0059  0.1720
 9941PP      PP20045  13.927   3.344   9.619  0.1532  0.0801 -0.4324
 9942PP      PP20046   2.171   5.635  11.744 -0.0572  0.0828  0.0397
 9943PP      PP20047  11.208   2.996  12.410 -0.0502 -0.0526 -0.0788
 9944PP      PP20048  12.677  15.477  12.297 -0.2575 -0.0716  0.2170
 9945PP      PP20049  10.361   6.393   0.177 -0.0244  0.1136  0.1775
 9946PP      PP20050   9.108   6.723   2.230  0.1552  0.0780 -0.1507
 9947PP      PP20051   5.537   5.880   2.719 -0.3740  0.0286 -0.1487
 9948PP      PP20052  12.272   1.149  10.337 -0.2069  0.0462  0.0477
 9949PP      PP20053   9.768  15.072   0.573  0.0124  0.1132  0.1594
 9950PP      PP20054   7.020  15.238   8.731  0.2179 -0.0926  0.3687
 9951PP      PP20055   0.888   4.922   1.524 -0.1539  0.1389 -0.0384
 9952PP      PP20056   3.553   1.380   0.189  0.0726  0.2198 -0.2350
 9953PP      PP20057   6.614  10.774   8.861 -0.1562 -0.2033  0.0592
 9954PP      PP20058  10.551   2.069   3.561 -0.1167  0.2233  0.2631
 9955PP      PP20059   3.241  12.679  13.429  0.0003 -0.2650  0.0078
 9956PP      PP20060   9.667   8.645  12.027  0.1552  0.1015  0.0740
 9957PP      PP20061   5.089  15.313  10.845 -0.1532  0.0769  0.2528
 9958PP      PP20062   1.603   5.437   0.188 -0.1671  0.2791  0.1079
 9959PP      PP20063   3.064  11.167   0.906  0.5132  0.0940 -0.2245
 9960PP      PP20064   9.312   0.771   1.968  0.0420  0.0355  0.0568
 9961PP      PP20065   0.003  14.167  13.267  0.2137 -0.0273 -0.0934
 9962PP      PP20066  11.480  12.464   3.972  0.0257 -0.0983  0.1328
 9963PP      PP20067   6.870   6.013   0.004  0.0482 -0.0982  0.1046
 9964PP      PP20068   3.601   7.301   4.769 -0.4034  0.1214  0.2355
 9965PP      PP20069   9.123  13.192  11.385  0.2441 -0.3654  0.0617
 9966PP      PP20070  11.039   2.491   4.305 -0.0929 -0.0164  0.1520
 9967PP      PP20071   8.013   1.047  11.499  0.1091  0.2174 -0.0147
 9968PP      PP20072  15.100   4.298  12.217 -0.2670 -0.1805  0.0767
 9969PP      PP20073   1.305   1.625  13.029  0.1521 -0.3170 -0.0251
 9970PP      PP20074   0.033  10.429   0.739  0.0152 -0.2184 -0.3187
 9971PP      PP20075   5.207  10.735   9.608 -0.0141 -0.1433  0.2067
 9972PP      PP20076  13.909   6.131   7.590  0.0814  0.2792 -0.2242
 9973PP      PP20077   8.135   1.258   1.335 -0.1247 -0.0698 -0.0356
 9974PP      PP20078   9.143  10.638   1.123  0.0576  0.0336  0.2711
 9975PP      PP20079   0.069  14.922  10.828 -0.0729  0.4368 -0.0054
 9976PP      PP20080  10.624   9.610   2.954 -0.4216 -0.2138  0.1897
 9977PP      PP20081   3.415   8.703   0.995  0.0274  0.1820  0.1614
 9978PP      PP20082  13.165   2.555   1.291  0.2538 -0.0065 -0.1933
 9979PP      PP20083   3.592   8.800   1.534 -0.1607 -0.2384  0.2570
 9980PP      PP20084  11.853   4.277   1.573 -0.2195 -0.1114  0.2027
 9981PP      PP20085  14.171   8.692   1.386  0.0421  0.2182 -0.1357
 9982PP      PP20086  14.559  14.943  11.697  0.1599 -0.1159  0.0234
 9983PP      PP20087  13.635   0.556  11.038 -0.2446 -0.0021  0.0739
 9984PP      PP20088   1.218  14.403   3.563 -0.0840  0.4091  0.1550
 9985PP      PP20089   3.479   1.879   9.273 -0.2112  0.0881 -0.0298
 9986PP      PP20090   7.268  11.412  10.349 -0.0867 -0.2875 -0.1183
 9987PP      PP20091  10.966   6.314   2.330 -0.1752 -0.1346 -0.2681
 9988PP      PP20092   2.314  10.608  13.424 -0.1627 -0.1232 -0.1081
 9989PP      PP20093   0.356  11.397  10.707 -0.1803  0.0935 -0.1886
 9990PP      PP20094   9.366   5.777   8.490  0.2965 -0.0477 -0.0723
 9991PP      PP20095  11.544  15.346   1.577 -0.1962  0.1287 -0.0437
 9992PP      PP20096   0.088   8.427   3.264 -0.1570  0.0464 -0.2032
 9993PP      PP20097   1.445  13.945  10.238 -0.2004 -0.0133  0.3484
 9994PP      PP20098   1.519   3.407   9.891  0.1461 -0.2077 -0.0579
 9995PP      PP20099   4.813   6.026  10.806 -0.0954  0.0838 -0.0144
 9996PP      PP20100   9.347   3.798   1.608 -0.2363 -0.0770 -0.0136
 9997PP      PP20101  15.641   4.511   9.122  0.0195  0.0145  0.2074
 9998PP      PP20102   3.993   3.907  12.711  0.1425  0.0396 -0.1286
 9999PP      PP20103   0.489   0.145  11.252  0.3848 -0.2023 -0.0180
10000PP      PP20104   7.114   0.449   8.806  0.1147 -0.1920  0.2455
10001PP      PP20105  13.321   3.084   3.574 -0.3437  0.0338 -0.2191
10002PP      PP20106   3.931   8.100   0.859  0.0427 -0.2421 -0.0598
10003PP      PP20107   4.208   6.341   2.720  0.2712 -0.2934  0.0652
10004PP      PP20108   7.820  13.362  11.628 -0.0947  0.0953  0.2161
10005PP      PP20109  15.372  15.098   1.449 -0.0305  0.2549  0.1671
10006PP      PP20110  11.156   2.048  12.129  0.1373  0.2006 -0.0560
10007PP      PP20111  11.550  14.019   2.213  0.3053 -0.2750 -0.2008
10008PP      PP20112  14.353   5.183   1.466 -0.0878  0.0868 -0.0742
10009PP      PP20113  14.904  15.277   3.733 -0.3364 -0.4265 -0.3136
10010PP      PP20114   5.388   8.178   1.025  0.2909 -0.0141 -0.0197
10011PP      PP20115   2.090   5.677   0.134  0.1031 -0.0443  0.2225
10012PP      PP20116   9.020   4.509   8.844  0.2060 -0.2631  0.0166
10013PP      PP20117   8.912   2.515   1.636 -0.3625  0.0086 -0.1906
10014PP      PP20118   9.683   9.115   1.637  0.2820  0.0855  0.1198
10015PP      PP20119   5.200   4.817   9.233 -0.2459 -0.1096  0.2074
10016PP      PP20120  13.494   9.815   8.660  0.0221 -0.0797  0.0005
10017PP      PP20121   9.982   4.685   1.344 -0.2135  0.1783 -0.2953
10018PP      PP20122   5.717   4.877   3.788  0.2003  0.0005  0.0186
10019PP      PP20123  10.824   9.487  12.103  0.2431 -0.1827 -0.1717
10020PP      PP20124   4.697   6.155   9.541  0.0787  0.0524 -0.2272
10021PP      PP20125  15.647  13.929   0.091  0.1932 -0.1758 -0.1053
10022PP      PP20126   4.696   2.122   3.899  0.0285 -0.0710 -0.1507
10023PP      PP20127  11.260  13.903   4.471 -0.2461 -0.0707 -0.2734
10024PP      PP20128  14.048   8.801  12.966 -0.1714  0.0769 -0.4232
10025PP      PP20129  13.320  11.454   0.309  0.0212 -0.4459  0.1421
10026PP      PP20130   9.372  13.242   9.178  0.1110 -0.2087 -0.1781
10027PP      PP20131   6.307   0.143   8.952  0.4011  0.3047  0.1640
10028PP      PP20132  13.757   2.689  11.662 -0.3019 -0.1381  0.0889
10029PP      PP20133  14.126   3.244  11.623  0.4806  0.0513  0.1513
10030PP      PP20134  15.023   3.749  11.827 -0.1721  0.0892 -0.4040
10031PP      PP20135   4.778   3.480  12.589  0.1969  0.3332 -0.1222
10032PP      PP20136   9.148   8.413  11.028  0.1450 -0.0829  0.1783
10033PP      PP20137   1.836   2.517   9.777 -0.1348  0.2829  0.0811
10034PP      PP20138  12.430  15.340  11.346 -0.0942 -0.2372 -0.0362
10035PP      PP20139   4.248   3.388   9.407  0.0276 -0.4701  0.0869
10036PP      PP20140   5.435   6.054   9.255  0.1974 -0.3905 -0.1635
10037PP      PP20141   9.841   5.433   9.692  0.2367 -0.2266 -0.1507
10038PP      PP20142   6.581  11.267   2.260 -0.0821 -0.0432 -0.2432
10039PP      PP20143   8.061   1.491  10.309 -0.0800 -0.0113 -0.0781
10040PP      PP20144   9.642  12.134   3.490  0.1677 -0.0126 -0.1669
10041PP      PP20145  10.906  11.587  12.078 -0.0329 -0.0399  0.1384
10042PP      PP20146  15.767   8.683   2.853  0.2569 -0.0253 -0.0036
10043PP      PP20147  14.687  10.675   0.446 -0.0126  0.1286  0.1594
10044PP      PP20148   5.136   8.675   9.329  0.2102 -0.1582 -0.1119
10045PP      PP20149  15.734  12.583  13.274 -0.4929  0.0531  0.2169
10046PP      PP20150   6.024   9.662   0.104 -0.0101 -0.1191  0.1216
10047PP      PP20151   3.064   9.870   4.066  0.0558  0.1154  0.0581
10048PP      PP20152   2.768  13.710   3.216  0.1473 -0.2288 -0.0118
10049PP      PP20153   3.564   5.385  12.496 -0.1516 -0.1373  0.0394
10050PP      PP20154   3.554  11.996   9.375 -0.1624  0.1890  0.0947
10051PP      PP20155  13.787   9.350   2.736  0.0171  0.0674 -0.2889
10052PP      PP20156   2.132  10.247   2.787 -0.0573 -0.0184  0.0219
10053PP      PP20157  11.602   6.384   0.999  0.0030  0.0903 -0.2422
10054PP      PP20158  14.956   7.922   1.032 -0.0983 -0.0572  0.0111
10055PP      PP20159   1.492   8.272   9.288  0.1621  0.0317 -0.2120
10056PP      PP20160   3.836  14.229   2.050  0.0427  0.1457 -0.2054
10057PP      PP20161  11.325   2.452   2.264  0.2086  0.1564 -0.1132
10058PP      PP20162   4.419   1.660   3.416 -0.0166  0.0136  0.2438
10059PP      PP20163   3.916   7.204  10.517  0.1706  0.0399 -0.0765
10060PP      PP20164  14.590   7.232   0.912 -0.0897  0.0465 -0.1424
10061PP      PP20165  12.008   7.885   8.489 -0.2459 -0.2702 -0.1276
10062PP      PP20166   1.704  15.466   1.576 -0.0606  0.0308 -0.1088
10063PP      PP20167  13.294  13.318   2.514 -0.3238 -0.1980  0.2679
10064PP      PP20168   1.673  14.814  11.045 -0.4162  0.0626 -0.0950
10065PP      PP20169   0.493   4.935   9.736  0.0762  0.0626  0.3896
10066PP      PP20170   4.888  13.516  13.397 -0.1237 -0.2292 -0.1895
10067PP      PP20171   0.802   6.018  11.777 -0.2311 -0.0473 -0.0343
10068PP      PP20172   5.173   0.033   9.302 -0.0699 -0.1658  0.0911
10069PP      PP20173  14.543  10.648  12.950  0.0948 -0.0748 -0.0253
10070PP      PP20174   8.909  12.332  11.106 -0.0794  0.1115  0.2357
10071PP      PP20175   8.863  12.612   0.227  0.0311 -0.0483  0.3842
10072PP      PP20176   7.967  12.053  13.072 -0.2027 -0.0735 -0.0098
10073PP      PP20177  12.363   7.900   7.857  0.1685  0.0182 -0.0162
10074PP      PP20178   4.931   9.207   9.497 -0.2672  0.1199  0.0132
10075PP      PP20179   4.853  14.499   2.333 -0.1714 -0.0390  0.1629
10076PP      PP20180   8.838   8.768   2.215 -0.2562 -0.0079  0.1255
10077PP      PP20181  12.222  12.691  13.165  0.0085 -0.0707  0.0264
10078PP      PP20182  15.866   9.725   3.021 -0.2757  0.1314 -0.1443
10079PP      PP20183  12.052  11.014  11.159  0.0830  0.1925  0.2804
10080PP      PP20184   6.342   8.664   9.893  0.1214  0.3700 -0.0996
10081PP      PP20185   3.159   7.592  11.033  0.0199 -0.3164  0.2483
10082PP      PP20186  13.704  10.542   1.931 -0.2145  0.1622 -0.3589
10083PP      PP20187  11.285   6.720   2.436 -0.0622  0.1075 -0.0284
10084PP      PP20188   8.911   1.706   3.182 -0.1592 -0.0288 -0.0836
10085PP      PP20189   2.204   0.035  11.671  0.0931 -0.0953 -0.2801
10086PP      PP20190  12.226   2.698  12.418  0.0598 -0.2486 -0.0739
10087PP      PP20191   5.660  14.249   9.664  0.0003  0.2273  0.1677
10088PP      PP20192   3.091   4.056  11.028 -0.0924  0.1104  0.1845
10089PP      PP20193  13.125  14.803   0.627  0.0064  0.1315 -0.0471
10090PP      PP20194   8.176   8.459   2.079 -0.1083  0.0048  0.0903
10091PP      PP20195  15.704  14.273   0.967  0.1292 -0.0698 -0.0728
10092PP      PP20196  12.269   2.397  11.148 -0.1239  0.0283 -0.4972
10093PP      PP20197  15.493   2.438  12.498 -0.1914  0.3171 -0.2092
10094PP      PP20198   4.868   0.146   9.656 -0.0308  0.0042  0.3716
10095PP      PP20199   8.258   7.118   2.527 -0.0716 -0.2853 -0.0262
10096PP      PP20200  11.819  13.206   2.553  0.2180  0.2096  0.2097
10097PP      PP20201  14.036  12.519   9.469 -0.1372 -0.0076  0.1461
10098PP      PP20202   3.918   6.896  12.802 -0.0826  0.0763  0.0494
10099PP      PP20203   5.576   4.048  11.133 -0.2657  0.2445 -0.0466
10100PP      PP20204   1.475  12.009   3.017 -0.0695  0.2694  0.0396
10101PP      PP20205   0.992   4.775   3.232 -0.3831  0.0839  0.0910
10102PP      PP20206  13.151  11.891  11.497  0.3834  0.1146 -0.0488
10103PP      PP20207  13.400   6.882   1.930  0.0892  0.0945 -0.4133
10104PP      PP20208   3.192  12.303   1.897 -0.1494  0.0710  0.0825
10105PP      PP20209   7.162   8.533   2.082  0.0116 -0.1666 -0.2040
10106PP      PP20210   8.854   9.027   4.189  0.1349  0.2449 -0.1043
10107PP      PP20211   8.927   7.079   9.763  0.0040  0.0398  0.2436
10108PP      PP20212   9.105   7.222  12.182 -0.3823  0.2830  0.2508
10109PP      PP20213  14.014   7.591   8.427  0.4607 -0.3896 -0.5191
10110PP      PP20214   6.363   2.449   1.311  0.0333 -0.0020  0.0823
10111PP      PP20215   0.696   7.501  13.126 -0.3882 -0.1538  0.1372
10112PP      PP20216   5.188  13.063   3.641 -0.1589 -0.1526  0.0334
10113PP      PP20217   8.864  14.029   9.481  0.0344  0.3481 -0.0981
10114PP      PP20218  14.522   8.170   9.746 -0.1555  0.4596  0.2979
10115PP      PP20219   4.733   6.455   1.183 -0.2126  0.2057 -0.0756
10116PP      PP20220  15.658  12.610   1.111  0.0927  0.4634 -0.0479
10117PP      PP20221   7.027  10.424  12.990  0.2279 -0.0125 -0.0803
10118PP      PP20222  15.878   1.386   2.584  0.3454  0.4094 -0.1285
10119PP      PP20223   0.879   2.629   4.210 -0.1306  0.0045  0.1662
10120PP      PP20224   7.188   0.297  12.323 -0.0085  0.1943 -0.2079
10121PP      PP20225   9.407   2.659  12.140 -0.0521  0.0451  0.0629
10122PP      PP20226   6.515   7.970   2.227  0.0133  0.1091 -0.3745
10123PP      PP20227  13.451  15.888  11.671  0.2275 -0.1978 -0.0765
10124PP      PP20228  15.218   6.132  11.586  0.1354 -0.0000  0.0640
10125PP      PP20229  10.862   7.756   1.468 -0.3827  0.0581 -0.0099
10126PP      PP20230  10.831   6.076   9.220 -0.1869 -0.0461 -0.3289
10127PP      PP20231   9.091  12.076   3.744  0.0144  0.1101  0.2093
10128PP      PP20232   4.933  11.824  11.761  0.1881 -0.0752 -0.1615
10129PP      PP20233   8.019   1.239  12.346 -0.2372 -0.0096 -0.0871
10130PP      PP20234   4.685   9.465   9.194  0.2004 -0.2987 -0.3492
10131PP      PP20235   0.019   5.648   9.734 -0.0962  0.2337 -0.3097
10132PP      PP20236   3.341   5.406   9.463  0.3562 -0.0472 -0.2521
10133PP      PP20237   2.492  12.407  11.819  0.0438  0.2805  0.0735
10134PP      PP20238   8.052   4.883  13.354 -0.3278  0.3118 -0.2297
10135PP      PP20239   1.651   9.625   3.886 -0.1608  0.2212 -0.0173
10136PP      PP20240   3.921   9.683  12.852  0.0447  0.0492 -0.1043
10137PP      PP20241  12.787  13.908   1.193  0.0687  0.1102  0.1581
10138PP      PP20242  15.340  13.511  10.613 -0.0035  0.3261  0.0033
10139PP      PP20243  14.454  15.618   1.593 -0.1066  0.2137 -0.0932
10140PP      PP20244  15.531   4.233   1.473 -0.1624  0.2047  0.1221
10141PP      PP20245  10.673   1.585  12.655  0.1229 -0.2457  0.0669
10142PP      PP20246   7.674   4.544  11.729 -0.0340 -0.3273 -0.1997
10143PP      PP20247  15.786   6.907   9.684  0.1715 -0.3289  0.1890
10144PP      PP20248  10.388  10.137   0.661  0.0695  0.0174  0.0601
10145PP      PP20249   0.358  15.421   9.445  0.1217  0.2997 -0.1705
10146PP      PP20250   1.316   0.312  11.565 -0.0864  0.0278  0.0555
10147PP      PP20251  14.639   7.127  13.395  0.2082  0.2505 -0.1046
10148PP      PP20252  15.746   1.432  10.704  0.0891  0.2038  0.1843
10149PP      PP20253  12.108  14.061   0.666  0.0150 -0.1656  0.1746
10150PP      PP20254   8.552  15.483   2.963 -0.2621  0.1162 -0.1639
10151PP      PP20255   9.278   7.120  10.130 -0.0512 -0.1032 -0.2790
10152PP      PP20256  14.094  15.705   3.455  0.0478 -0.0522  0.0657
10153PP      PP20257  13.777   1.486   2.671  0.2453 -0.2623  0.2444
10154PP      PP20258   5.469  14.554  12.519  0.2330  0.0286  0.0367
10155PP      PP20259   8.906  14.777   0.114  0.1322  0.1005 -0.0563
10156PP      PP20260   3.852  11.983   2.438  0.2405  0.1493  0.2160
10157PP      PP20261  15.665  15.604   2.480  0.2198  0.3019 -0.0752
10158PP      PP20262  14.636  12.367   9.447 -0.1493  0.2686  0.2989
10159PP      PP20263   8.046   8.278   1.651  0.1371  0.3389  0.3334
10160PP      PP20264   2.704   4.175   2.390  0.0140 -0.1514 -0.0282
10161PP      PP20265  12.792  14.534   1.465  0.2860 -0.1239  0.1619
10162PP      PP20266   3.377   1.609   0.836 -0.1389  0.1957 -0.3449
10163PP      PP20267   6.810  11.492   1.360 -0.0374  0.1888 -0.2190
10164PP      PP20268   6.227  10.062   9.197  0.2915  0.1076 -0.5176
10165PP      PP20269   1.837  12.353  13.429  0.0741  0.2322  0.0693
10166PP      PP20270  13.336  15.157   4.141 -0.1279  0.2213  0.1712
10167PP      PP20271   7.453   1.768  11.039  0.0091  0.2982  0.0945
10168PP      PP20272   6.042   8.001  11.845 -0.0299 -0.1280 -0.1210
10169PP      PP20273   2.523   4.619  10.165 -0.1480  0.2252 -0.0230
10170PP      PP20274  15.196   8.583  10.674 -0.0091 -0.1967  0.2112
10171PP      PP20275   0.399   2.627   0.583  0.1603 -0.0088 -0.1588
10172PP      PP20276   8.886  12.071   2.036  0.4000 -0.0390 -0.0896
10173PP      PP20277   5.557   1.752   2.983 -0.2633  0.4272 -0.0309
10174PP      PP20278   8.672   1.239   0.230  0.0932 -0.1421 -0.1373
10175PP      PP20279   7.368   7.785   3.551  0.1234  0.0330  0.3194
10176PP      PP20280  13.074   1.954  11.479 -0.0713  0.0148  0.0704
10177PP      PP20281   3.352  10.990  10.694 -0.2585  0.3218 -0.1446
10178PP      PP20282   2.209   8.220  10.420 -0.0863 -0.2241 -0.1054
10179PP      PP20283  11.713   5.154  11.753 -0.0568 -0.0886 -0.2605
10180PP      PP20284  14.496   6.616   0.175 -0.2454  0.1062  0.0823
10181PP      PP20285  13.113   3.391  10.070 -0.2086 -0.1234 -0.1374
10182PP      PP20286   2.765   8.573  13.368  0.0688 -0.2202 -0.4279
10183PP      PP20287  12.704  15.661   2.553  0.0130  0.1359 -0.1994
10184PP      PP20288   7.193  15.773  11.469  0.0614 -0.3387 -0.0973
10185PP      PP20289   2.227   7.515  11.131  0.0473  0.0784  0.0649
10186PP      PP20290  15.552   5.106   3.070  0.0726 -0.1189  0.1259
10187PP      PP20291   2.442  14.206  13.260  0.2952  0.0766 -0.1672
10188PP      PP20292  10.882   1.288   9.592 -0.0099  0.1382  0.3332
10189PP      PP20293  15.061   5.159   3.065  0.0289 -0.1135 -0.0727
10190PP      PP20294   8.464  10.691   4.184 -0.2954 -0.2938 -0.0149
10191PP      PP20295  11.626   9.321   9.061 -0.0255 -0.1036 -0.0417
10192PP      PP20296   9.624   5.414   2.287 -0.1903 -0.0511 -0.0785
10193PP      PP20297   9.269  11.707  10.525  0.3730 -0.0309  0.0200
10194PP      PP20298   6.796  14.795  13.202  0.0937 -0.0455 -0.1127
10195PP      PP20299   1.555   7.971   2.065 -0.0496  0.0190 -0.0673
10196PP      PP20300  10.688  14.126   0.706  0.0466 -0.1065 -0.0522
10197PP      PP20301   9.509  14.534   4.014  0.2564 -0.0328  0.1162
10198PP      PP20302  14.284   2.962   2.823  0.3453  0.2344 -0.0371
10199PP      PP20303   6.742   1.906   4.523  0.0869  0.1397  0.2910
10200PP      PP20304   8.580   0.905   1.166 -0.0372 -0.4883  0.2900
10201PP      PP20305   3.277   9.999  11.013  0.0919 -0.4327  0.2020
10202PP      PP20306   1.201   9.645   0.506  0.1814 -0.1667  0.1728
10203PP      PP20307   2.500   8.643  12.920  0.0695  0.2485  0.0294
10204PP      PP20308  15.576   6.359  12.620  0.2223  0.0079  0.1544
10205PP      PP20309  15.338   9.295   0.805 -0.0577 -0.1582  0.0653
10206PP      PP20310  13.176   8.164   2.798 -0.1218  0.0481  0.0009
10207PP      PP20311   6.055  13.364   0.548  0.1569 -0.1524  0.4861
10208PP      PP20312   3.511  11.474  10.595  0.3341 -0.3135  0.4871
10209PP      PP20313   8.919  11.084   1.862  0.0223  0.2561  0.0526
10210PP      PP20314   3.400   2.548   2.751  0.1471 -0.0511  0.1718
10211PP      PP20315  10.034  13.770   1.224  0.2419  0.0272  0.2324
10212PP      PP20316  11.468   5.822   0.125 -0.1767 -0.0357  0.3580
10213PP      PP20317  10.604   6.288   1.858 -0.0735  0.1111  0.0572
10214PP      PP20318   8.083  12.427  12.053 -0.0006 -0.1676  0.3061
10215PP      PP20319   9.783   9.499   9.964 -0.0013 -0.1592 -0.3064
10216PP      PP20320   7.361  11.251   2.417  0.3755 -0.4657 -0.2490
10217PP      PP20321   4.996  11.156   9.842  0.1778  0.2261  0.1676
10218PP      PP20322   2.533  15.385   9.827  0.0800  0.0044 -0.0965
10219PP      PP20323  11.220   7.141  10.534  0.1675 -0.0928  0.4523
10220PP      PP20324   0.014   8.852  10.153 -0.1011 -0.2316  0.0780
10221PP      PP20325   1.559   5.933   1.720 -0.3161  0.1667  0.1192
10222PP      PP20326   2.316   0.283  11.197 -0.0277  0.0372  0.0308
10223PP      PP20327  15.255   3.561   0.770 -0.1844  0.0939  0.0790
10224PP      PP20328  10.511   2.113   4.066 -0.3419  0.1204  0.4132
10225PP      PP20329   5.706  11.928   0.599  0.0325 -0.2952  0.0887
10226PP      PP20330   1.259   1.322  10.237 -0.0759  0.2359 -0.1893
10227PP      PP20331  13.286   2.031  11.970 -0.1061 -0.2142  0.5266
10228PP      PP20332   1.398   7.682  11.120 -0.2855 -0.1332 -0.1763
10229PP      PP20333   2.416  14.787   3.954 -0.1448 -0.1257  0.2783
10230PP      PP20334  10.083  10.000   1.883  0.0366 -0.0382 -0.2917
10231PP      PP20335  15.037  11.587  10.756 -0.1028 -0.1571 -0.1622
10232PP      PP20336   8.851   6.292   2.183 -0.0516 -0.1062 -0.2784
10233PP      PP20337  14.906  14.604  11.708 -0.4582 -0.2635 -0.0174
10234PP      PP20338  13.996   3.820   2.688 -0.2809  0.0028  0.1899
10235PP      PP20339   3.217   3.037   2.172  0.2905  0.0954  0.0838
10236PP      PP20340  13.607   3.991   3.010  0.2068 -0.2492 -0.0606
10237PP      PP20341   5.291  10.525   3.776 -0.1846  0.0893  0.0267
10238PP      PP20342  12.697  12.579  13.362  0.1119  0.0259 -0.0964
10239PP      PP20343  14.795   0.801   2.407 -0.2043 -0.0990  0.1057
10240PP      PP20344  15.177   4.084   0.681 -0.1308  0.2478  0.1610
10241PP      PP20345   8.989   4.013  13.433  0.0802  0.1008 -0.3283
10242PP      PP20346   2.914  11.902   4.251 -0.0847  0.0363  0.0336
10243PP      PP20347   3.786   0.403  10.122 -0.0213  0.1001 -0.1056
10244PP      PP20348  12.083  14.791   3.794 -0.2359  0.0294 -0.0394
10245PP      PP20349  12.603   3.228  10.951  0.0867 -0.0455 -0.0453
10246PP      PP20350   0.609   4.312   3.858 -0.1751 -0.1927 -0.1030
10247PP      PP20351  13.062   1.921   4.196 -0.2090 -0.0954  0.0098
10248PP      PP20352   5.922  11.457   0.492  0.1489  0.3582  0.0804
10249PP      PP20353  12.427  11.477  12.705  0.0714 -0.0897  0.2354
10250PP      PP20354   3.368  15.224  10.796  0.0297 -0.1490 -0.0825
10251PP      PP20355   0.173  11.716   3.980 -0.0174  0.3726  0.0611
10252PP      PP20356  14.950   5.057   9.012 -0.0658 -0.2789 -0.5624
10253PP      PP20357  15.543   7.294   8.766 -0.1129 -0.0590 -0.1295
10254PP      PP20358   8.498  14.214  10.605 -0.5427  0.0915 -0.1712
10255PP      PP20359   0.608   7.264  11.457  0.1800  0.0200 -0.1019
10256PP      PP20360   2.805   0.164  11.977 -0.0007  0.3116  0.0569
10257PP      PP20361   1.046   5.299  10.507 -0.0359  0.2464 -0.2431
10258PP      PP20362  13.249   8.997   2.771  0.2498  0.2270  0.0301
10259PP      PP20363  14.795   5.994   0.832  0.3522  0.2477 -0.1236
10260PP      PP20364  12.727  10.981  13.268 -0.0727 -0.0934 -0.0068
10261PP      PP20365   1.903   5.405  10.858 -0.0863 -0.0965 -0.0701
10262PP      PP20366   4.566   0.327  12.374 -0.6574 -0.0738 -0.5091
10263PP      PP20367  10.598  14.553   2.638  0.3586  0.1111  0.1996
10264PP      PP20368   2.902   2.754  11.573  0.0112 -0.1366 -0.0279
10265PP      PP20369  10.889  13.351  11.799 -0.1794  0.0799 -0.1547
10266PP      PP20370   4.114   9.391  11.820  0.0941  0.1139  0.0077
10267PP      PP20371   5.606  15.517   3.221 -0.3078  0.3726  0.1870
10268PP      PP20372   3.550   9.042   1.987 -0.2287 -0.1053  0.2123
10269PP      PP20373  15.833  12.047   0.705 -0.1777 -0.0854  0.2414
10270PP      PP20374   9.667  12.449   2.483 -0.0529  0.3585  0.1680
10271PP      PP20375   2.710  10.286   2.587 -0.0317  0.1102 -0.1692
10272PP      PP20376   2.369   4.080   9.814  0.1678 -0.0722  0.2299
10273PP      PP20377   3.609   4.251   3.676  0.0178  0.0169 -0.1455
10274PP      PP20378   7.482   6.980  10.512 -0.0602 -0.0475 -0.2822
10275PP      PP20379  14.400   5.737   0.536 -0.0883  0.0617 -0.0282
10276PP      PP20380   2.847   8.968  13.108  0.4636  0.4393  0.0623
10277PP      PP20381   9.266  12.223   4.321  0.0876  0.1655 -0.1739
10278PP      PP20382  12.285   3.293   2.446  0.1884 -0.0159  0.4028
10279PP      PP20383   3.087   2.505   1.030  0.1837 -0.0780  0.0940
10280PP      PP20384   2.376   2.127   3.135 -0.3821 -0.1569 -0.0979
10281PP      PP20385  13.110   9.404  11.608 -0.1917 -0.2139 -0.1171
10282PP      PP20386   4.724   4.945   3.478 -0.0510 -0.1222 -0.0780
10283PP      PP20387  15.682  14.275   1.735  0.2685 -0.2822  0.0427
10284PP      PP20388   6.930  12.598   3.547 -0.3451  0.1331 -0.1225
10285PP      PP20389  11.231  11.700  12.524 -0.4623 -0.1534 -0.1103
10286PP      PP20390  15.589   2.998  10.176 -0.0504  0.2035  0.0821
10287PP      PP20391   4.757   5.182   1.921 -0.1289  0.0265 -0.0419
10288PP      PP20392   7.439  15.431   0.662 -0.2441  0.0153 -0.0201
10289PP      PP20393  10.045   8.437   2.930 -0.0242 -0.2489 -0.1912
10290PP      PP20394   6.705   4.364  11.865 -0.0662  0.0442  0.1185
10291PP      PP20395  13.637   0.185  13.203  0.0737  0.0504 -0.1446
10292PP      PP20396   9.656  14.014  13.220 -0.2764 -0.0396  0.2353
10293PP      PP20397   7.225   1.589   2.306  0.0242  0.0807  0.3670
10294PP      PP20398   4.678   6.876   0.733  0.1145  0.1874  0.2924
10295PP      PP20399  15.762   3.187  12.810 -0.2198 -0.2097  0.0178
10296PP      PP20400   0.940  12.750  10.813 -0.0350  0.2386 -0.1239
10297PP      PP20401   1.054   0.419   3.694  0.4924  0.2553 -0.2619
10298PP      PP20402  10.853  10.632  13.055 -0.2591 -0.0709  0.0448
10299PP      PP20403  11.767  11.934   9.784  0.1429 -0.1089  0.1379
10300PP      PP20404  14.506   6.286   3.602 -0.2079 -0.1226 -0.0922
10301PP      PP20405   7.857   9.383  11.286  0.2378  0.1213 -0.0854
10302PP      PP20406   7.707   3.074   1.627  0.0268 -0.2790  0.2370
10303PP      PP20407  14.380   9.043   2.753 -0.0781  0.1241  0.0064
10304PP      PP20408   9.572   8.389   9.816 -0.0338 -0.3227  0.2238
10305PP      PP20409  13.606   7.242   1.218 -0.2142  0.1149  0.0705
10306PP      PP20410   6.285  12.374   0.452 -0.2597  0.0725  0.0252
10307PP      PP20411   7.962  13.144  13.288  0.1964  0.1150 -0.0504
10308PP      PP20412  12.268  14.353   2.994 -0.0477  0.1887 -0.0110
10309PP      PP20413   5.435  10.194  12.759  0.1737  0.0269 -0.1558
10310PP      PP20414  13.241   1.370  12.716 -0.0660 -0.0061 -0.0151
10311PP      PP20415   0.536   4.039  12.865 -0.3228 -0.0231 -0.0279
10312PP      PP20416  13.946  14.621   9.151  0.0403  0.0334  0.3381
10313PP      PP20417   1.506   8.931  10.065 -0.1848 -0.0034 -0.2263
10314PP      PP20418   1.802   0.217   3.004 -0.3614 -0.0068  0.0619
10315PP      PP20419   3.163   9.030   1.436 -0.1082  0.2353  0.2945
10316PP      PP20420   4.985   5.648   0.194 -0.1155  0.0740 -0.0988
10317PP      PP20421   1.504   4.534  11.076 -0.1525 -0.0743 -0.1045
10318PP      PP20422  13.654  11.147   4.318  0.2086  0.3965  0.2786
10319PP      PP20423  15.361   1.376   1.207  0.2786  0.0043  0.2913
10320PP      PP20424   1.192   3.774   3.090 -0.0997 -0.0822 -0.2783
10321PP      PP20425  12.670   1.837   1.402 -0.2906  0.3946  0.2321
10322PP      PP20426   1.826   9.929  11.814  0.1080  0.0131 -0.1025
10323PP      PP20427  14.070  13.737   1.865 -0.3452 -0.1114 -0.3473
10324PP      PP20428   8.880  12.796   3.552 -0.0919  0.1470 -0.1864
10325PP      PP20429  12.812   7.150   3.104 -0.2100  0.0847  0.2379
10326PP      PP20430   4.203   4.415  12.420 -0.2900 -0.0224  0.1436
10327PP      PP20431  14.371   8.179   2.686  0.3537  0.0397  0.1777
10328PP      PP20432   1.949  14.675   1.618  0.1460 -0.0110 -0.0735
10329PP      PP20433   8.205   4.008   8.998 -0.4444  0.0236  0.0952
10330PP      PP20434   2.408   5.218  10.643 -0.0504 -0.1065 -0.2094
10331PP      PP20435  10.831   8.977   1.341  0.1198 -0.1201  0.2387
10332PP      PP20436   2.347   3.098   2.483  0.2560 -0.2227 -0.0483
10333PP      PP20437  10.575   8.188   2.328  0.2429 -0.2530  0.2495
10334PP      PP20438   8.769   3.110  13.127  0.0776 -0.1701  0.2654
10335PP      PP20439   2.085   0.382   0.363 -0.1835 -0.0650 -0.2899
10336PP      PP20440   6.980   9.648  13.258 -0.1459  0.0000  0.0645
10337PP      PP20441  11.540   2.829   2.767  0.0731  0.2218  0.2761
10338PP      PP20442  12.936  10.207   3.514 -0.3827  0.0947 -0.0206
10339PP      PP20443   8.648  14.364  11.135 -0.0856 -0.2820 -0.2818
10340PP      PP20444   3.193  13.528  13.229  0.1203  0.1796  0.0482
10341PP      PP20445   8.885   3.715   0.816 -0.1939 -0.0109  0.0833
10342PP      PP20446   8.110   6.924   9.064 -0.0263 -0.0001  0.2112
10343PP      PP20447   3.107   8.247  12.236  0.0944 -0.2096 -0.2432
10344PP      PP20448   3.083   4.777   2.762 -0.0411  0.4275 -0.1713
10345PP      PP20449  11.648   7.022   1.703  0.0277 -0.1524 -0.1323
10346PP      PP20450   1.848   2.209   3.112  0.1505  0.0514 -0.0372
10347PP      PP20451  11.041   7.727  12.586 -0.0451 -0.1935  0.0435
10348PP      PP20452  15.061  15.522   8.849  0.1074 -0.2287 -0.0561
10349PP      PP20453   6.088  11.433  10.005 -0.1718  0.2675  0.1437
10350PP      PP20454   2.039  10.372   1.432 -0.2488  0.1192  0.0590
10351PP      PP20455   9.084  10.078   3.273 -0.1023  0.5162  0.0318
10352PP      PP20456  13.424  10.732  10.764 -0.1169 -0.2760 -0.2986
10353PP      PP20457  10.287   8.845   9.147 -0.2980  0.1550 -0.3843
10354PP      PP20458  13.274   0.474   8.755  0.4142 -0.2894 -0.2801
10355PP      PP20459   6.793   5.721   9.242  0.1876 -0.1241  0.1628
10356PP      PP20460  13.457   2.743   2.052 -0.1097 -0.1006  0.2684
10357PP      PP20461   3.084   0.290   3.366  0.1081  0.2395  0.1035
10358PP      PP20462   3.767   1.012   9.463 -0.0477 -0.1143  0.2633
10359PP      PP20463   3.504  10.752   4.345  0.2626 -0.0132  0.0558
10360PP      PP20464   3.137   8.904   2.460  0.1401 -0.0218 -0.2177
10361PP      PP20465   5.951   9.420   8.453  0.0764 -0.0449 -0.4431
10362PP      PP20466   6.566   6.356   1.141 -0.1311  0.0402  0.0508
10363PP      PP20467   2.975   0.538   3.791 -0.4062  0.0235 -0.0050
10364PP      PP20468   2.241  10.520   1.871 -0.3295 -0.1840  0.2261
10365PP      PP20469  10.019   5.748  12.415  0.3599  0.0315  0.2143
10366PP      PP20470  11.611   5.012  12.643  0.1967 -0.0430  0.1447
10367PP      PP20471  15.312  10.691   3.875  0.1114  0.0332 -0.3916
10368PP      PP20472   3.647  12.217   1.784 -0.0876  0.0932  0.1871
10369PP      PP20473  11.316   8.571   9.685 -0.4185  0.0923  0.1479
10370PP      PP20474   2.324   9.816  12.019 -0.0475 -0.4139 -0.0304
10371PP      PP20475   9.575   3.828  11.355 -0.0275  0.0555  0.1564
10372PP      PP20476   6.362   2.106   0.381  0.1010 -0.0896  0.3119
10373PP      PP20477  11.582   4.084   3.165 -0.1774  0.0342  0.1396
10374PP      PP20478   5.682  13.316  12.864  0.0420  0.3371 -0.1668
10375PP      PP20479   8.207   9.949   9.529  0.1096 -0.1149  0.2090
10376PP      PP20480   8.350   0.880  11.879 -0.0047  0.0296  0.2929
10377PP      PP20481   3.227   6.231   3.974  0.2868  0.5168 -0.1000
10378PP      PP20482  14.827  14.589   3.806 -0.2009 -0.3166 -0.2057
10379PP      PP20483   7.775   5.317   2.574 -0.0460  0.0130 -0.1231
10380PP      PP20484   3.301   1.080   1.076 -0.1744 -0.0247 -0.1489
10381PP      PP20485   3.710  15.253   3.730 -0.0037  0.1568  0.0690
10382PP      PP20486   6.670   3.119   2.400 -0.1128  0.3225  0.1455
10383PP      PP20487   7.849  12.703   2.655 -0.1228 -0.3908 -0.1242
10384PP      PP20488  14.257   3.689  11.285 -0.0035 -0.1737  0.0043
10385PP      PP20489  12.679  11.153  10.417  0.0123 -0.0849  0.1269
10386PP      PP20490   0.096  10.149  11.041 -0.0081  0.2527  0.0002
10387PP      PP20491  10.460   5.012   2.423  0.0277 -0.0399  0.0750
10388PP      PP20492   0.446   4.831  13.408  0.0324  0.5416  0.1547
10389PP      PP20493  15.332  11.861   9.430 -0.0382 -0.2600  0.0541
10390PP      PP20494  11.250  12.376   2.403  0.1586  0.0144 -0.3615
10391PP      PP20495   8.699   1.649   0.485  0.1870 -0.0519 -0.0790
10392PP      PP20496  12.397  12.109   4.281 -0.3292  0.1686  0.1892
10393PP      PP20497  11.522  10.825  12.293 -0.1159 -0.2007  0.1208
10394PP      PP20498  12.182  12.260   9.848 -0.1344  0.1707  0.0027
10395PP      PP20499   2.359   8.144   9.518 -0.3351 -0.0230 -0.1465
10396PP      PP20500   0.360   2.454   3.704 -0.1840  0.0883  0.0468
10397PP      PP20501   3.437   8.423   9.500 -0.0201  0.1873 -0.3165
10398PP      PP20502  11.344  12.985   4.047 -0.3417 -0.0723  0.1619
10399PP      PP20503  15.606   7.192  10.635  0.0547  0.1040  0.2124
10400PP      PP20504   5.066  11.502   1.709 -0.1639 -0.1372  0.1039
10401PP      PP20505   6.805   1.826  13.540  0.2782  0.2101  0.2778
10402PP      PP20506   3.402   1.909   1.309 -0.2566  0.1913 -0.0663
10403PP      PP20507  14.443  15.435   0.350  0.0806  0.1387 -0.1065
10404PP      PP20508  12.359   0.383  13.011 -0.1194  0.1410  0.3661
10405PP      PP20509   4.770   7.249  11.092 -0.6795  0.0159 -0.0615
10406PP      PP20510   0.158   5.146   1.353  0.1822 -0.1791  0.0001
10407PP      PP20511  11.917   0.564  12.110  0.0963 -0.2180  0.0446
10408PP      PP20512   5.212   3.480  13.110  0.0243 -0.2757 -0.1149
10409PP      PP20513   0.367   3.834   9.874 -0.0216  0.2158 -0.1146
10410PP      PP20514  12.594   2.598  12.141 -0.0924  0.1481  0.1630
10411PP      PP20515   8.661  10.228  13.035 -0.2716 -0.1588  0.3097
10412PP      PP20516   1.018  14.026   1.351 -0.1536 -0.2079  0.3246
10413PP      PP20517   0.521   7.919  11.365 -0.3377  0.0714 -0.1804
10414PP      PP20518   3.717   7.656  11.161  0.4383  0.2990  0.2865
10415PP      PP20519   1.618   7.309   3.082  0.0958  0.0395  0.1680
10416PP      PP20520  14.581  11.631  10.983  0.2467  0.2198 -0.0166
10417PP      PP20521   6.647   6.280   9.332 -0.1182 -0.2301 -0.1827
10418PP      PP20522  11.414  12.815   0.605  0.0191 -0.5097  0.1937
10419PP      PP20523  14.415   3.354  13.091  0.1998 -0.1326 -0.0235
10420PP      PP20524   1.688   4.719   1.898 -0.0878 -0.0956  0.4086
10421PP      PP20525  14.002   1.775  13.329 -0.1556 -0.2903 -0.0594
10422PP      PP20526   9.952  14.472   4.816 -0.3416 -0.0044 -0.0828
10423PP      PP20527   5.644   2.738   4.775 -0.0575 -0.0925  0.3199
10424PP      PP20528  11.194   5.124  12.920 -0.2607 -0.2840 -0.1955
10425PP      PP20529   3.762   7.297  12.982  0.1787 -0.0095 -0.1859
10426PP      PP20530   5.859   0.800   0.814  0.2779 -0.0718 -0.1132
10427PP      PP20531   4.883   3.407  11.029  0.1947 -0.0185  0.1384
10428PP      PP20532   7.622  12.133   1.376 -0.2463  0.0001  0.1308
10429PP      PP20533  13.066  11.881   9.380  0.0071 -0.2752 -0.0530
10430PP      PP20534   0.829   6.280  13.106 -0.2148  0.0614  0.1399
10431PP      PP20535  13.373   4.643  10.683  0.1053 -0.0680 -0.2062
10432PP      PP20536   1.725   9.209   2.907 -0.0003 -0.0472 -0.1942
10433PP      PP20537   2.458  10.717  11.829  0.0407 -0.0967 -0.1656
10434PP      PP20538  12.162   5.546   9.272 -0.0121  0.1409 -0.2888
10435PP      PP20539  10.807  11.393   9.621  0.1066  0.1345  0.1424
10436PP      PP20540   6.236  11.369   2.917 -0.0073 -0.0043  0.0316
10437PP      PP20541   8.551  14.582  10.104 -0.5031 -0.2668 -0.2373
10438PP      PP20542  11.525   8.377   2.103  0.1954 -0.1597  0.0073
10439PP      PP20543   8.403   6.213   2.095  0.0398 -0.1945 -0.0809
10440PP      PP20544   8.762  13.602   2.407  0.0773 -0.3672  0.2093
10441PP      PP20545  10.938   9.013   2.237  0.0373 -0.0133  0.0849
10442PP      PP20546  12.612   4.060   9.385  0.0557 -0.0042 -0.0094
10443PP      PP20547   7.579  13.643   3.426  0.2407  0.1271  0.0306
10444PP      PP20548   2.630  13.063   0.365 -0.1085  0.1590 -0.0498
10445PP      PP20549   2.230  11.006   0.897  0.3155  0.3815 -0.2448
10446PP      PP20550   6.751   3.586   9.129 -0.1037 -0.0591  0.0678
10447PP      PP20551  11.796   1.272  10.301  0.2682  0.2477 -0.1984
10448PP      PP20552  11.046  14.674   4.544  0.0169 -0.0554 -0.1218
10449PP      PP20553   8.200   2.458  11.430 -0.1563 -0.1760  0.1045
10450PP      PP20554   4.914   5.989  12.371 -0.0680  0.0613  0.2531
10451PP      PP20555   7.982   2.485   9.383 -0.2250 -0.0202  0.0103
10452PP      PP20556   8.015   3.694   2.574 -0.3832  0.3161  0.1729
10453PP      PP20557  10.695   1.596   4.943  0.2335 -0.2466  0.0200
10454PP      PP20558   3.944  11.676  10.505 -0.1629 -0.0599 -0.3271
10455PP      PP20559   2.705   6.094   9.832 -0.0716 -0.4246  0.1291
10456PP      PP20560   2.959   8.337  11.760 -0.0721  0.0777  0.0215
10457PP      PP20561  14.518   3.234   0.681 -0.1150 -0.3763 -0.4077
10458PP      PP20562   7.689   4.648   1.463  0.2418  0.0514  0.0365
10459PP      PP20563  12.003   4.698  12.907  0.0950 -0.1936 -0.3901
10460PP      PP20564   3.768   9.852  12.394 -0.0890  0.2986 -0.1204
10461PP      PP20565   2.552   7.956   8.358  0.1547  0.0294  0.2966
10462PP      PP20566   4.085  10.977  13.062 -0.0684  0.1692 -0.1174
10463PP      PP20567  15.051  12.491   3.249 -0.1523  0.0241  0.0011
10464PP      PP20568  10.927  14.764   0.822  0.2184 -0.0268 -0.0397
10465PP      PP20569  15.357   9.788   9.908  0.2057  0.0506 -0.3796
10466PP      PP20570  14.791  13.749   2.883 -0.0158  0.0238 -0.1795
10467PP      PP20571   3.571   1.899   0.050  0.0084  0.0228  0.1861
10468PP      PP20572   5.669  14.446   1.796  0.0951 -0.0837 -0.2228
10469PP      PP20573   5.592   6.277   4.011 -0.0390  0.1357  0.2024
10470PP      PP20574  11.366   0.864   9.676 -0.2887 -0.2805 -0.1496
10471PP      PP20575   3.419  13.178   3.785  0.0210 -0.0635 -0.0654
10472PP      PP20576   0.115  10.136  12.386 -0.0774  0.0424  0.1411
10473PP      PP20577  11.963  11.642   1.377  0.1629 -0.0281 -0.2406
10474PP      PP20578   8.491   1.253   4.391  0.4433  0.1562  0.0703
10475PP      PP20579  11.375   9.841   3.720 -0.0402 -0.0140  0.0172
10476PP      PP20580  14.798   7.383   2.821  0.0017  0.0966  0.1358
10477PP      PP20581  14.561   3.375   8.798 -0.1980 -0.1199 -0.0297
10478PP      PP20582   2.751   3.096   2.992 -0.1408  0.0358  0.1780
10479PP      PP20583   0.484  14.244   9.581 -0.0220  0.2145 -0.0037
10480PP      PP20584  11.598   2.971   1.478  0.3348 -0.1532  0.2139
10481PP      PP20585   9.317  15.007   4.278 -0.2518 -0.0198  0.0657
10482PP      PP20586   6.288  11.228   0.132 -0.3088 -0.1275  0.1039
10483PP      PP20587  10.905   3.333  11.072  0.1538  0.1180 -0.0157
10484PP      PP20588  12.805  12.860   0.235  0.0994  0.2411  0.3420
10485PP      PP20589   1.937   6.867   2.434  0.1929 -0.0764  0.0165
10486PP      PP20590  11.172  13.814  10.273 -0.0077  0.1403 -0.0474
10487PP      PP20591   6.019   7.711   0.468  0.1570 -0.1178  0.0563
10488PP      PP20592  14.029   4.055   1.938  0.0879  0.0813  0.3338
10489PP      PP20593   5.634   6.067  12.685  0.1221  0.0485  0.1829
10490PP      PP20594   0.261  11.163  11.472  0.0602  0.2199 -0.1921
10491PP      PP20595  10.847  12.705   2.347 -0.2404  0.0411 -0.0023
10492PP      PP20596  11.396   9.161   9.535 -0.0459 -0.1934 -0.0947
10493PP      PP20597   6.360   6.213   3.078  0.1750 -0.0944 -0.1974
10494PP      PP20598   7.765   1.937   9.580 -0.0194  0.3629 -0.1953
10495PP      PP20599  15.358   5.992   1.876  0.0096 -0.1779  0.2090
10496PP      PP20600  14.548   4.740   3.680  0.1216 -0.0431 -0.0362
10497PP      PP20601   6.458   8.779   0.091  0.0643  0.0039  0.0538
10498PP      PP20602   2.272   7.762   2.543 -0.0553  0.2043  0.0446
10499PP      PP20603   0.447   1.807  12.389  0.0406 -0.0747  0.0862
10500PP      PP20604   3.734   6.982   9.445 -0.2793  0.1745  0.0965
10501PP      PP20605  14.289  13.902  13.307 -0.4919  0.2353  0.1716
10502PP      PP20606   5.811   6.620  11.398  0.2465  0.0463  0.0482
10503PP      PP20607  13.875   0.148  11.413 -0.0178  0.0438 -0.1175
10504PP      PP20608   7.623   1.232   2.222 -0.3783 -0.0612 -0.0445
10505PP      PP20609  15.207  10.379   1.060  0.3333 -0.2601 -0.1917
10506PP      PP20610   0.896   2.944   3.268  0.1740  0.2296  0.0412
10507PP      PP20611  15.063  11.709  12.078  0.0109 -0.1067 -0.0201
10508PP      PP20612  11.763   5.676   1.717 -0.0918  0.2358 -0.0231
10509PP      PP20613   8.111  12.193   0.440  0.0328  0.0155  0.1359
10510PP      PP20614  14.794   4.803  11.170  0.2703 -0.0521 -0.0738
10511PP      PP20615  11.500  14.932   2.788 -0.1610 -0.0242 -0.3331
10512PP      PP20616  12.258  12.799  11.433 -0.1703 -0.0995 -0.0229
10513PP      PP20617   1.954   3.859   9.980  0.0058  0.2309  0.1111
10514PP      PP20618   3.420   1.653   4.445  0.2052 -0.0438 -0.1091
10515PP      PP20619   3.846   1.849   3.982 -0.2236 -0.0779  0.1446
10516PP      PP20620   0.044   8.406   3.769  0.1329  0.0499 -0.0465
10517PP      PP20621   1.981  11.116   0.496 -0.2167  0.2839  0.2137
10518PP      PP20622   5.360   1.211   4.395  0.1011  0.0478  0.1583
10519PP      PP20623   4.366   9.329   1.933  0.3550  0.0556  0.0468
10520PP      PP20624   2.612   5.876   3.191  0.0371 -0.3677 -0.2605
10521PP      PP20625   0.772   1.065   2.168 -0.0801 -0.0129 -0.1636
10522PP      PP20626   8.062   5.604   9.221  0.1093 -0.0828 -0.1036
10523PP      PP20627  12.699   7.133  10.845  0.0003 -0.2517 -0.0588
10524PP      PP20628   9.953   1.837   4.971  0.0722  0.0330  0.1044
10525PP      PP20629   0.184   3.533  13.048 -0.2520 -0.0935 -0.0981
10526PP      PP20630   2.562   9.189   0.417  0.1480  0.1560  0.1156
10527PP      PP20631  11.154  10.378   2.669 -0.2208 -0.0166  0.1169
10528PP      PP20632   4.678  14.605   2.837 -0.0942 -0.0177 -0.4648
10529PP      PP20633  10.085  10.037  12.181 -0.0445  0.2266 -0.0410
10530PP      PP20634  14.541   2.471   3.507 -0.1643 -0.4639  0.1976
10531PP      PP20635   1.483  11.560  10.151  0.5032 -0.0063  0.3293
10532PP      PP20636   5.164   0.247   0.925 -0.2112 -0.0605  0.3177
10533PP      PP20637  14.114  15.407   9.021  0.2748 -0.2029 -0.1441
10534PP      PP20638   9.291   7.156  11.079  0.3145 -0.2422  0.0075
10535PP      PP20639  10.885  14.267  10.169  0.1037  0.0866  0.1493
10536PP      PP20640   4.074   2.992   1.064  0.1000 -0.0066 -0.1963
10537PP      PP20641   1.084   9.656  11.341  0.1989 -0.4145  0.0884
10538PP      PP20642   8.379  13.477   8.463  0.2999  0.3228 -0.2174
10539PP      PP20643   3.343  10.233   2.346  0.1861  0.0717  0.0663
10540PP      PP20644   1.657   0.884   2.662  0.2444 -0.2949 -0.2342
10541PP      PP20645   7.560  14.482   0.779 -0.0666 -0.0081  0.1859
10542PP      PP20646   7.193   2.699   0.251  0.2542  0.0713  0.2630
10543PP      PP20647   3.893   6.000   1.960  0.2032  0.3832  0.0736
10544PP      PP20648   9.481  12.910  11.588  0.6106 -0.0912 -0.3279
10545PP      PP20649   0.788   7.663   4.142  0.0603  0.0434 -0.0352
10546PP      PP20650   3.532   5.068  11.006 -0.4344 -0.0398 -0.0950
10547PP      PP20651   6.234   0.429  10.867 -0.0315  0.2123 -0.1348
10548PP      PP20652  10.048  15.786   5.362  0.1351 -0.0846 -0.0368
10549PP      PP20653   9.944  11.934  13.209 -0.0753 -0.1513 -0.1523
10550PP      PP20654   6.373   7.081   8.918  0.3429  0.0846  0.0124
10551PP      PP20655   8.797   4.908   4.407  0.0181 -0.2039 -0.0979
10552PP      PP20656   2.856  10.082  11.165  0.2677  0.1726  0.2335
10553PP      PP20657   5.062  11.881  12.725  0.4724  0.1935 -0.0868
10554PP      PP20658  15.133  15.514  11.473 -0.0531 -0.3000 -0.2823
10555PP      PP20659  10.454  12.589   0.800  0.0417  0.1307  0.1111
10556PP      PP20660   0.232   0.928  12.818  0.0519  0.0192 -0.1588
10557PP      PP20661   1.781   6.700   2.010  0.0520 -0.1460  0.0276
10558PP      PP20662   8.425   1.217   9.688 -0.0867  0.1270  0.1178
10559PP      PP20663   0.117   0.949  11.593  0.1435  0.1414 -0.1426
10560PP      PP20664  15.610  10.908   9.265  0.3548  0.2338  0.0176
10561PP      PP20665   9.904   9.187   8.560  0.0312 -0.0968  0.0361
10562PP      PP20666   0.635  14.798   3.319 -0.1030  0.2760  0.3636
10563PP      PP20667  13.304   1.881   0.895 -0.2834 -0.2877  0.0610
10564PP      PP20668  11.327   2.089  11.040 -0.0367 -0.2813 -0.1229
10565PP      PP20669   6.519  13.437   1.862  0.1553 -0.0348  0.0853
10566PP      PP20670   8.999   5.916   0.950  0.2886  0.0990  0.2431
10567PP      PP20671   2.970   0.986   3.656  0.0666 -0.0537  0.0395
10568PP      PP20672  14.835   7.072   1.408 -0.1622  0.0264  0.1673
10569PP      PP20673  15.577   2.539   2.276 -0.0760 -0.2162 -0.0299
10570PP      PP20674   0.229   4.601   2.554 -0.0398 -0.1274  0.1179
10571PP      PP20675   1.756  10.766   0.732 -0.2214  0.0959  0.3156
10572PP      PP20676  13.718   2.339   2.161  0.0376  0.1063 -0.2184
10573PP      PP20677   7.338   5.347   0.359  0.1185  0.0590 -0.3936
10574PP      PP20678  11.666  12.758   9.241 -0.3109 -0.2193  0.0017
10575PP      PP20679   7.095   3.104   9.361 -0.0356 -0.2231  0.2347
10576PP      PP20680   1.772   2.395  10.415 -0.0089 -0.0040 -0.0574
10577PP      PP20681   0.463  13.321   0.269  0.0234  0.2280 -0.0378
10578PP      PP20682   7.576  11.130  11.368  0.0746  0.4970 -0.0049
10579PP      PP20683   7.385  13.971   9.139  0.0376  0.0676  0.1740
10580PP      PP20684   1.508  15.419   2.066  0.1210 -0.1727 -0.1043
10581PP      PP20685  14.545  10.443  10.720 -0.0585 -0.1460  0.2690
10582PP      PP20686  12.704  15.351   2.068 -0.2463  0.2691  0.1086
10583PP      PP20687   1.453  12.548   0.131  0.2743 -0.2674  0.2045
10584PP      PP20688   9.249   2.875   1.814 -0.0178 -0.1068  0.2697
10585PP      PP20689  15.210  11.620   1.704  0.1949 -0.0751  0.1749
10586PP      PP20690   2.679  15.306  13.356 -0.1915  0.0924  0.2047
10587PP      PP20691   1.246  10.663   0.603  0.2015  0.2288  0.1499
10588PP      PP20692   1.341   8.639   9.014  0.1614  0.0799 -0.0158
10589PP      PP20693   8.978  10.170   0.714  0.1048  0.1260 -0.3274
10590PP      PP20694   2.866   9.705   0.658  0.3493  0.0043 -0.0224
10591PP      PP20695  12.221  11.564   0.519  0.3064  0.0302  0.1598
10592PP      PP20696   3.261  14.479  11.540  0.0057 -0.2521  0.1899
10593PP      PP20697   5.013  15.492   4.132 -0.2866  0.0131 -0.1058
10594PP      PP20698   1.428  13.947   2.437  0.2083 -0.1177 -0.0519
10595PP      PP20699  11.909   0.549   4.357  0.1268 -0.0402 -0.0210
10596PP      PP20700  12.276   5.385  12.435 -0.0957  0.0511 -0.1126
10597PP      PP20701  10.705   5.329  12.275  0.1527  0.1113 -0.2999
10598PP      PP20702  14.131  12.725   4.172 -0.1179 -0.3559 -0.1976
10599PP      PP20703   6.521  13.450   2.373  0.1122  0.1494 -0.0636
10600PP      PP20704  11.757  13.444  12.721 -0.2343 -0.0724 -0.1759
10601PP      PP20705  14.663   6.453   3.123  0.2856 -0.0990 -0.2650
10602PP      PP20706   5.951  13.521   1.530  0.1778 -0.1899 -0.1122
10603PP      PP20707  10.374   3.211   3.425 -0.0621  0.0843 -0.0580
10604PP      PP20708   6.907  11.794   1.882  0.2889 -0.1492 -0.0386
10605PP      PP20709   1.489   3.966   9.888 -0.1069  0.1094 -0.1777
10606PP      PP20710   9.230  13.257   4.114  0.3317 -0.2594  0.3882
10607PP      PP20711   1.204   9.798   1.008  0.1971  0.0274 -0.1759
10608PP      PP20712  13.125   0.569  10.741  0.0773  0.3175 -0.2692
10609PP      PP20713   1.669  14.256   9.910  0.1348 -0.0999 -0.1089
10610PP      PP20714   1.504   6.038  12.258  0.1336  0.1643 -0.1255
10611PP      PP20715   2.615   8.332   1.432 -0.0700 -0.3042  0.1475
10612PP      PP20716   1.570   1.496   9.912 -0.0270  0.1579  0.1464
10613PP      PP20717  11.971  13.105  13.237 -0.1212 -0.0039  0.1251
10614PP      PP20718   5.025   9.425   1.753  0.0468  0.4036  0.0837
10615PP      PP20719   6.296  11.075   8.708  0.1577  0.1599  0.0932
10616PP      PP20720   8.964   1.130   1.917 -0.2501  0.2669 -0.1163
10617PP      PP20721   2.741  10.951   9.717  0.0847 -0.3374 -0.1538
10618PP      PP20722   6.122   8.128   1.248 -0.0841 -0.3565  0.0256
10619PP      PP20723   4.105   9.507   1.520  0.1263 -0.0939 -0.1198
10620PP      PP20724   9.611  14.546   1.548  0.1265 -0.3254  0.1112
10621PP      PP20725  11.575   0.589   4.805 -0.1178 -0.1022  0.2905
10622PP      PP20726  10.261   3.603   3.132 -0.3696  0.0263  0.0552
10623PP      PP20727   1.105   1.279   1.144  0.1910  0.0087 -0.0044
10624PP      PP20728   7.913   1.582   3.471 -0.0203 -0.2832 -0.0378
10625PP      PP20729   7.566  15.887   1.647 -0.2536 -0.1353  0.1100
10626PP      PP20730   9.989  11.694  11.534 -0.0265  0.1223 -0.1700
10627PP      PP20731   1.506   1.558  11.334 -0.1042 -0.2227 -0.2440
10628PP      PP20732  11.282   4.936  11.716  0.0965 -0.3962 -0.0726
10629PP      PP20733   7.571   0.804   3.068 -0.2143  0.0982  0.0194
10630PP      PP20734  15.545  12.309  12.896  0.1681 -0.2852 -0.2273
10631PP      PP20735   5.940   9.686   4.561 -0.4550  0.1959 -0.0615
10632PP      PP20736  10.991   7.425   0.148 -0.2596  0.2782 -0.1770
10633PP      PP20737  14.914   4.761   2.748 -0.0012 -0.3543  0.2175
10634PP      PP20738   2.411   2.704   0.643 -0.1643  0.4493  0.1053
10635PP      PP20739   3.978   2.195  11.204  0.0757 -0.0534  0.0206
10636PP      PP20740   5.830  12.489  10.869 -0.1441  0.0965 -0.0071
10637PP      PP20741   0.882   0.327   3.183 -0.2124  0.4068  0.1470
10638PP      PP20742  13.737   2.458  11.023  0.1524  0.2086  0.2540
10639PP      PP20743  11.283  14.738   3.329  0.0235 -0.3032 -0.3241
10640PP      PP20744   0.802   3.614   2.772 -0.3706  0.3143 -0.4671
10641PP      PP20745  11.586   6.938   1.148 -0.1081 -0.1447  0.0852
10642PP      PP20746  13.247   4.741  12.431 -0.4988 -0.0449  0.1660
10643PP      PP20747   6.076  12.158   1.523  0.0747  0.4057 -0.1164
10644PP      PP20748  14.823  11.948   9.705 -0.1467  0.1512 -0.2990
10645PP      PP20749  15.794  14.323  11.764  0.1042 -0.1157 -0.2633
10646PP      PP20750   0.276   4.663   8.420  0.0552 -0.0165  0.1355
10647PP      PP20751   0.772  11.394   9.369  0.1509 -0.3521  0.3702
10648PP      PP20752  11.492   0.173  13.315 -0.0634 -0.0774  0.1172
10649PP      PP20753   0.422   9.191  13.438 -0.3264 -0.3263 -0.3801
10650PP      PP20754  10.041   9.274   1.116  0.0432 -0.1432  0.0784
10651PP      PP20755   7.111   2.442   3.864  0.1720 -0.0765  0.2773
10652PP      PP20756  12.092   5.951   7.788 -0.0428 -0.1402  0.2501
10653PP      PP20757   6.771   1.651  12.186 -0.1098  0.2576  0.2136
10654PP      PP20758  14.413   0.495   1.078  0.1142  0.0296  0.1443
10655PP      PP20759   6.395   7.828   3.192  0.5246  0.1146  0.1329
10656PP      PP20760  15.584   1.973   0.047 -0.3467 -0.1439  0.0696
10657PP      PP20761  11.476   5.827  10.402  0.0994  0.2210  0.1410
10658PP      PP20762   4.326  14.827   0.004 -0.0141  0.0720 -0.3104
10659PP      PP20763   3.514  14.715  11.920  0.1140 -0.0163  0.0917
10660PP      PP20764   2.844   8.344   3.955  0.0353 -0.3317 -0.1766
10661PP      PP20765   0.901  15.286   3.439  0.2095  0.1082  0.1617
10662PP      PP20766   5.795  10.509   3.919 -0.0814  0.4769 -0.0267
10663PP      PP20767   4.615   3.408   1.655  0.0900 -0.0478  0.2948
10664PP      PP20768   9.443   6.026  11.581  0.0412  0.0139 -0.1471
10665PP      PP20769  15.236  11.488  13.362  0.1915  0.3353  0.0176
10666PP      PP20770  10.755  10.439   3.056  0.1498  0.4037 -0.0606
10667PP      PP20771  15.024   7.549  10.180 -0.1224  0.1400  0.1845
10668PP      PP20772   6.474   8.355   3.197 -0.1467 -0.3597 -0.2550
10669PP      PP20773  10.834   0.165  11.986 -0.2862 -0.1331  0.0496
10670PP      PP20774  10.653   2.758  10.758  0.1190 -0.4448 -0.1886
10671PP      PP20775   6.908  12.522   8.893  0.1489 -0.2001 -0.0765
10672PP      PP20776   0.958   4.136   3.479 -0.0751  0.1862 -0.0960
10673PP      PP20777  15.863  12.968   0.137 -0.0477  0.0427 -0.2135
10674PP      PP20778  12.953  10.894  11.106  0.0052 -0.0348  0.2725
10675PP      PP20779  10.805   8.552  11.761 -0.2589 -0.1264  0.1517
10676PP      PP20780  15.351   2.370  13.070  0.2138 -0.0171  0.1189
10677PP      PP20781   0.311   8.016  10.960  0.0203 -0.2259  0.2031
10678PP      PP20782   8.189   0.847   2.292  0.1064  0.1629  0.0888
10679PP      PP20783   0.611  15.196  10.407 -0.0995  0.0640  0.2268
10680PP      PP20784   9.699   5.274   8.725 -0.0497  0.0943  0.0434
10681PP      PP20785  13.553  10.703   0.312  0.1594  0.1566 -0.0107
10682PP      PP20786   2.274  12.339  12.316 -0.1324  0.1336  0.2006
10683PP      PP20787   2.859  14.381   2.321  0.2415  0.0402  0.0863
10684PP      PP20788   2.089  14.655   3.479 -0.0843  0.0883  0.2394
10685PP      PP20789   6.055   1.654  12.638 -0.0479  0.2229  0.0763
10686PP      PP20790   7.531   3.033  12.173 -0.1519  0.0472 -0.0614
10687PP      PP20791   2.462   9.253   8.950 -0.1404  0.0942 -0.0090
10688PP      PP20792  10.205   0.666  12.584  0.0548  0.0829 -0.1066
10689PP      PP20793   3.101  11.853   0.062  0.2345  0.1568  0.2340
10690PP      PP20794   9.352   6.213   9.714  0.1178 -0.2037  0.0297
10691PP      PP20795   5.875   0.149   9.416  0.1176  0.0249 -0.0358
10692PP      PP20796   7.621  12.476  11.764 -0.0156  0.3723  0.3550
10693PP      PP20797  13.376   3.592  12.629 -0.1202  0.0757 -0.0125
10694PP      PP20798   3.027   4.462   1.375 -0.3310 -0.0461 -0.0305
10695PP      PP20799   5.068   8.054  12.097 -0.2183 -0.1414 -0.1238
10696PP      PP20800  12.785   3.914  10.079  0.1913  0.5094 -0.1585
10697PP      PP20801  13.881   7.974   1.079  0.0681  0.0840 -0.2074
10698PP      PP20802   3.424  12.126   2.294 -0.1183  0.1631  0.1187
10699PP      PP20803   7.570  14.470   9.162  0.1814  0.0368 -0.1814
10700PP      PP20804  13.581   8.834  12.113 -0.0000  0.3565  0.0433
10701PP      PP20805  11.168  12.914  10.555  0.1925  0.0603  0.1268
10702PP      PP20806   5.926   4.952   0.697  0.0383 -0.2978  0.1257
10703PP      PP20807  15.256   2.116   9.946 -0.2301 -0.1789 -0.1280
10704PP      PP20808   8.591   8.639  10.171 -0.0682  0.4704 -0.1056
10705PP      PP20809   6.068   1.199   3.720 -0.0347  0.2457  0.3238
10706PP      PP20810  10.916   8.931  12.045  0.1441  0.1059  0.2168
10707PP      PP20811  15.428  12.105   1.131  0.0049 -0.3464  0.0067
10708PP      PP20812  14.485   8.410  11.328 -0.0390 -0.1105 -0.1469
10709PP      PP20813  14.323   8.103  13.492 -0.0152  0.2401  0.1903
10710PP      PP20814   2.508   8.204   0.922  0.1973 -0.0964  0.0962
10711PP      PP20815  15.353  10.097  13.214 -0.0360 -0.0509 -0.1256
10712PP      PP20816   2.101   5.655   3.935  0.0763  0.3091 -0.1471
10713PP      PP20817   2.171  13.769  13.066 -0.0255  0.1226  0.1256
10714PP      PP20818   1.846   8.211  12.301 -0.1138 -0.0365 -0.0744
10715PP      PP20819   5.875  10.799  12.026 -0.3398  0.1545 -0.0555
10716PP      PP20820   5.212   6.237   3.652  0.5387  0.2313 -0.2472
10717PP      PP20821   9.981  14.039  10.950 -0.2143  0.1288  0.2242
10718PP      PP20822   0.129   3.274   2.651  0.2033  0.5007  0.1243
10719PP      PP20823  14.498  12.802   9.605 -0.2586  0.0340 -0.3050
10720PP      PP20824   7.186  14.753   0.012 -0.1435  0.0020 -0.1538
10721PP      PP20825   4.632   6.140   1.541 -0.0769 -0.0519 -0.1656
10722PP      PP20826   9.265   1.122  10.975  0.1241 -0.0963 -0.4791
10723PP      PP20827   9.758  11.582   3.815  0.0712 -0.0261 -0.1156
10724PP      PP20828   9.587   7.760   2.554  0.0265  0.0320 -0.1635
10725PP      PP20829   2.212   3.841   3.131 -0.0155  0.0333 -0.1043
10726PP      PP20830   6.682  10.612   4.834  0.1547 -0.0118 -0.3561
10727PP      PP20831   7.537   0.022   0.855 -0.0783  0.3349 -0.3740
10728PP      PP20832   8.274   1.202  10.854  0.1505 -0.2197  0.1235
10729PP      PP20833  10.444   6.714   3.124  0.0722 -0.0983  0.1317
10730PP      PP20834   3.160   8.715  12.754 -0.0209  0.1301  0.1292
10731PP      PP20835  14.611  10.041   9.683  0.3613  0.1287  0.0049
10732PP      PP20836   2.066  13.344  12.277  0.0114 -0.1032 -0.0123
10733PP      PP20837  13.564   4.483   1.511  0.0532  0.0917  0.1813
10734PP      PP20838   2.824   1.976   3.984 -0.2505  0.0071  0.2814
10735PP      PP20839   5.061   8.123   1.553  0.0617 -0.0858 -0.0493
10736PP      PP20840  11.756   7.463  13.359  0.0873 -0.1093  0.1250
10737PP      PP20841   8.957   7.164   1.970 -0.2107 -0.1166  0.0421
10738PP      PP20842  15.635   4.592   9.727  0.2263 -0.1160 -0.0907
10739PP      PP20843  11.787  15.773   9.542 -0.0903  0.0462  0.0402
10740PP      PP20844  11.494   0.210  12.787  0.1131 -0.0255 -0.1278
10741PP      PP20845  13.057  10.340  10.929  0.2789  0.1094  0.1842
10742PP      PP20846   4.580  13.145   1.647  0.3913 -0.0781  0.0826
10743PP      PP20847   7.486   4.164   1.361 -0.0530 -0.3109 -0.1549
10744PP      PP20848   7.784  15.352  12.416 -0.0757 -0.1743 -0.0795
10745PP      PP20849   0.729   8.141   8.118  0.3280  0.4016 -0.1523
10746PP      PP20850  10.483  12.405  12.510  0.4759  0.3179 -0.1290
10747PP      PP20851  13.391   5.430   2.555  0.0128 -0.0789  0.1355
10748PP      PP20852   5.046   2.608   9.197 -0.2642 -0.0848  0.3567
10749PP      PP20853   3.552   3.264   3.100 -0.1137 -0.2035  0.1497
10750PP      PP20854   6.346  11.282   1.104 -0.0347 -0.1964 -0.2641
10751PP      PP20855   0.409  15.407   3.533 -0.1690 -0.0430 -0.0868
10752PP      PP20856  11.979   4.096  10.678 -0.1467 -0.0317  0.0321
10753PP      PP20857   1.637  13.033  12.164  0.0101  0.2629 -0.0782
10754PP      PP20858   2.244   4.962  12.042  0.1762  0.0441 -0.1340
10755PP      PP20859   9.359   9.351   9.143 -0.1654 -0.1373  0.3153
10756PP      PP20860  14.535  14.898   9.680  0.1000 -0.0817 -0.5056
10757PP      PP20861   5.373   0.441   1.834 -0.0398  0.2187 -0.1848
10758PP      PP20862   2.256   0.917   3.219 -0.2375  0.0448  0.1093
10759PP      PP20863   0.815   5.070  10.148 -0.3558  0.1857  0.1664
10760PP      PP20864   4.382  15.528  12.446 -0.3126  0.0820 -0.0673
10761PP      PP20865   0.701  13.630   9.824 -0.1287  0.0458 -0.1677
10762PP      PP20866  14.014  15.426  11.084  0.1314  0.2610  0.0250
10763PP      PP20867   9.278   7.046   0.041 -0.1954 -0.1141 -0.0931
10764PP      PP20868  10.560  14.535   0.492  0.1906  0.1125  0.3432
10765PP      PP20869   8.081   5.587   1.437  0.2788 -0.4046  0.2723
10766PP      PP20870   9.078  14.484  13.256  0.2229 -0.0848  0.0147
10767PP      PP20871   0.168  10.873   9.039  0.0222 -0.3173 -0.1054
10768PP      PP20872   6.925  13.771   1.838  0.2231 -0.2130 -0.0201
10769PP      PP20873  15.605   4.589  11.454  0.4261 -0.1349 -0.4774
10770PP      PP20874  15.315  11.442   2.298  0.2193 -0.0762  0.2254
10771PP      PP20875   0.898  10.028   0.605  0.3286  0.0299  0.0619
10772PP      PP20876   5.431   8.820  11.586  0.1719 -0.1057  0.0363
10773PP      PP20877   9.501   5.173  11.582  0.1377  0.0806 -0.0105
10774PP      PP20878   5.629  11.125  11.491 -0.0669 -0.0841 -0.0738
10775PP      PP20879   7.752  12.749   0.099  0.2863  0.0580  0.0679
10776PP      PP20880   6.585  12.168   3.451 -0.0856  0.0292 -0.1423
10777PP      PP20881  13.251   4.532  11.632 -0.2925 -0.0043 -0.0001
10778PP      PP20882   6.294   8.098   9.004  0.3358  0.2156 -0.0333
10779PP      PP20883   8.395  13.686  10.391 -0.1602 -0.2246  0.0617
10780PP      PP20884  15.035  13.000   1.261 -0.0283  0.0585 -0.2534
10781PP      PP20885   2.728   3.259   4.521  0.3405  0.2077  0.0594
10782PP      PP20886   1.066  12.756  12.988  0.0901  0.3225  0.3288
10783PP      PP20887   3.764   0.323   9.077 -0.1821  0.2362 -0.0308
10784PP      PP20888  10.339  10.545  11.757  0.0565 -0.0352 -0.2279
10785PP      PP20889   1.451  10.155  13.415  0.1738  0.1728  0.2243
10786PP      PP20890  11.432   7.323  11.491 -0.1698  0.1549  0.0574
10787PP      PP20891   1.700   7.531  10.796 -0.0600  0.1615  0.2989
10788PP      PP20892   9.886  13.806   0.643  0.0791 -0.1187 -0.0144
10789PP      PP20893  13.582   4.362   8.142  0.0118 -0.2835  0.1747
10790PP      PP20894  10.857   3.192   3.570  0.2342  0.0401  0.0607
10791PP      PP20895   1.035  14.184   2.196 -0.1674 -0.0111 -0.2691
10792PP      PP20896   0.380   9.530  10.565  0.0118  0.1563 -0.0033
10793PP      PP20897  15.106   5.822  10.893 -0.0022  0.2167 -0.0060
10794PP      PP20898  14.535  15.299  12.837 -0.1866 -0.4209  0.3300
10795PP      PP20899  14.574   9.962   1.670  0.0193 -0.1635 -0.0100
10796PP      PP20900  12.268  13.100   1.988  0.1684 -0.0413  0.0240
10797PP      PP20901   1.715   1.277   4.741 -0.3085  0.0531 -0.0079
10798PP      PP20902   7.157   3.864  11.049  0.0437  0.1373 -0.0744
10799PP      PP20903   5.056  12.464   3.578  0.0901  0.0298  0.1638
10800PP      PP20904   1.026   8.993   2.334  0.1778 -0.0481  0.2249
10801PP      PP20905   7.993  10.859  11.243  0.1086  0.1833 -0.0661
10802PP      PP20906  14.158  13.967   1.079  0.1202 -0.0233  0.1814
10803PP      PP20907  14.753  11.164  10.936  0.0443 -0.1430 -0.0327
10804PP      PP20908  12.659   5.322   9.159 -0.2119 -0.0462 -0.0583
10805PP      PP20909   1.325   0.251   1.009  0.3018  0.0387 -0.3166
10806PP      PP20910   7.162   1.707  10.573 -0.1132  0.4384  0.1732
10807PP      PP20911  10.904   2.247   0.258 -0.2164 -0.1376 -0.2069
10808PP      PP20912   5.886  11.950   9.612  0.0382  0.0032 -0.1815
10809PP      PP20913   4.688  12.766   2.008  0.3140 -0.0775  0.1633
10810PP      PP20914  10.538   5.593  10.946  0.1412  0.0293  0.1119
10811PP      PP20915   9.029   9.412   2.892 -0.1054  0.1043  0.0172
10812PP      PP20916   6.012   9.878  10.366 -0.3813  0.1263  0.0364
10813PP      PP20917   2.487  10.695   1.377 -0.0807  0.0264  0.2147
10814PP      PP20918   2.443   6.022  12.118 -0.0000 -0.1001 -0.0645
10815PP      PP20919  12.410   5.666  12.065 -0.0375 -0.2395 -0.0239
10816PP      PP20920   1.670   8.176   1.622  0.2018  0.0252  0.0656
10817PP      PP20921   8.995   9.888   0.210 -0.0015 -0.1220  0.0852
10818PP      PP20922   9.459   3.716   2.838 -0.1193 -0.1830  0.2038
10819PP      PP20923  11.765   5.397  12.371 -0.1738 -0.1234  0.0747
10820PP      PP20924   3.686  14.260   3.079 -0.2376 -0.1967  0.1499
10821PP      PP20925   2.819   0.243   0.193  0.0890  0.1751  0.1753
10822PP      PP20926   7.979  15.442   0.948  0.3117  0.2062  0.3030
10823PP      PP20927  12.321   7.939   3.106 -0.0867 -0.2084 -0.0688
10824PP      PP20928   8.329   1.331  11.966  0.1319 -0.2908 -0.1696
10825PP      PP20929   2.244  13.353   0.480 -0.4313  0.1094  0.1491
10826PP      PP20930  10.832   8.532   8.486  0.4056  0.2025 -0.1797
10827PP      PP20931  13.143  12.555   4.314  0.1803  0.2302  0.1948
10828PP      PP20932   0.417   2.240   4.173  0.3226  0.1147 -0.1197
10829PP      PP20933   2.175  12.940   2.233 -0.4774  0.2836 -0.2820
10830PP      PP20934   3.002   1.090   9.830 -0.0493 -0.0220  0.1899
10831PP      PP20935  15.583   4.973   0.954  0.0181  0.2526 -0.0590
10832PP      PP20936  10.282   1.660  12.338  0.0273  0.1988 -0.0105
10833PP      PP20937   6.405   2.842   3.022 -0.2697 -0.1980 -0.2858
10834PP      PP20938   8.799   8.550   4.315 -0.0976  0.2411  0.2836
10835PP      PP20939   2.527   7.770   0.649  0.0707  0.1456 -0.1152
10836PP      PP20940  14.977  11.604   3.539  0.1202 -0.0470 -0.1025
10837PP      PP20941   8.222   1.721  11.280 -0.0981 -0.1280 -0.2428
10838PP      PP20942   9.390   6.942   4.070 -0.0156 -0.4370  0.4793
10839PP      PP20943   0.895   4.978  11.702 -0.0583  0.2158 -0.0882
10840PP      PP20944  14.232  14.191   9.939  0.3252 -0.4436  0.0168
10841PP      PP20945   6.393   3.946  12.650  0.0169 -0.0543 -0.1359
10842PP      PP20946   3.003  15.719  12.298  0.1174  0.2631 -0.0741
10843PP      PP20947   7.077   1.732  10.088 -0.2438  0.0961  0.4388
10844PP      PP20948   1.188   9.863   9.403 -0.1649  0.1500  0.2444
10845PP      PP20949   5.572  15.560  10.851  0.3425 -0.1017  0.0555
10846PP      PP20950   1.473   6.903  12.117 -0.1361  0.0400  0.0827
10847PP      PP20951   6.901  10.165   8.114  0.1978 -0.0479  0.3849
10848PP      PP20952   1.633   7.577   0.275  0.2417  0.0105  0.0968
10849PP      PP20953  12.827  14.454  10.659  0.2380 -0.1188  0.0186
10850PP      PP20954   6.381  12.952   0.477 -0.0883 -0.0269 -0.0788
10851PP      PP20955  14.904  15.354   0.810  0.2360 -0.2257  0.1586
10852PP      PP20956   7.517   2.802   4.724  0.0586  0.1264 -0.1090
10853PP      PP20957  13.444  13.182  10.966  0.3211  0.1551  0.3812
10854PP      PP20958   6.219   6.255  12.306  0.0924 -0.2561  0.0955
10855PP      PP20959  14.654   3.882  10.256 -0.2141  0.1552  0.2571
10856PP      PP20960  14.936  13.717   9.307  0.2365 -0.0475  0.0592
10857PP      PP20961  12.361  14.923  11.094  0.0674 -0.1768 -0.0386
10858PP      PP20962   5.010   4.821  13.135  0.0205 -0.0494 -0.0493
10859PP      PP20963   5.562   5.243   1.304 -0.2780 -0.0462  0.1035
10860PP      PP20964  13.081   2.788  10.154 -0.0140  0.0369  0.1054
10861PP      PP20965  12.588   5.216   8.700 -0.2722  0.1405  0.0772
10862PP      PP20966   3.190   9.039  12.341 -0.0315  0.0534  0.0221
10863PP      PP20967   6.133  11.051  13.170  0.0417  0.2439  0.0785
10864PP      PP20968   7.918  13.252   4.809  0.1822  0.1514 -0.0084
10865PP      PP20969   0.992   8.671   9.470 -0.1726  0.1865 -0.2278
10866PP      PP20970   3.045   6.811   8.646 -0.1117 -0.0926  0.1060
10867PP      PP20971  12.469  13.117  13.478 -0.1513 -0.4099  0.2438
10868PP      PP20972  14.455   3.217  11.250  0.2649  0.1264 -0.1763
10869PP      PP20973  14.901   8.918  12.734 -0.1510 -0.0800  0.0832
10870PP      PP20974  11.376   4.060   9.905  0.2012 -0.1473  0.0404
10871PP      PP20975  15.222  10.836   1.376 -0.1095  0.0264  0.2357
10872PP      PP20976   8.565  10.468   0.768  0.0141  0.2425 -0.0463
10873PP      PP20977   7.134   9.773   1.074 -0.0589 -0.1016 -0.1190
10874PP      PP20978   3.705   3.048   1.399  0.0927 -0.0221  0.3218
10875PP      PP20979  10.967  15.087   2.480 -0.1894 -0.1676 -0.1164
10876PP      PP20980  11.621   3.098  12.224  0.2841 -0.2503 -0.0423
10877PP      PP20981   4.764   6.537   1.969  0.1867 -0.2708 -0.0894
10878PP      PP20982  14.479   8.793   9.041 -0.3803 -0.2679  0.1618
10879PP      PP20983   7.238   4.059  10.477  0.1543  0.0269  0.1080
10880PP      PP20984   3.084   9.290   1.884 -0.1630  0.1800  0.2134
10881PP      PP20985   5.171  12.204   2.396 -0.0668 -0.1928 -0.0058
10882PP      PP20986   5.336   7.349   3.702 -0.3589  0.3470 -0.1498
10883PP      PP20987  14.628   2.784   0.570  0.0792 -0.0757 -0.0884
10884PP      PP20988  13.496  10.957   2.310 -0.0501  0.1887  0.6543
10885PP      PP20989   5.985  10.907   0.349  0.1419 -0.2353 -0.0482
10886PP      PP20990  10.327   8.050  10.292  0.1571 -0.0652  0.0862
10887PP      PP20991   2.384   1.052  11.555 -0.0274  0.2402 -0.0965
10888PP      PP20992   1.192  10.208  11.836 -0.5416  0.1932 -0.0665
10889PP      PP20993  14.949  11.407   9.603  0.0677  0.2871  0.2613
10890PP      PP20994  13.608   6.684   2.399 -0.2389  0.0079 -0.0705
10891PP      PP20995  10.561  12.551  11.732  0.3514 -0.1083 -0.4639
10892PP      PP20996  10.560   6.337   7.320  0.0762 -0.0463 -0.1043
10893PP      PP20997   8.226   7.248   3.005 -0.1152  0.1818  0.0175
10894PP      PP20998  14.654   9.412  10.848 -0.0788  0.0990  0.0881
10895PP      PP20999   4.538  11.469  12.047 -0.2311 -0.3094 -0.3935
10896PP      PP21000   9.012   5.620   0.440 -0.2020 -0.2235 -0.2020
10897PP      PP21001   1.013  14.951  11.187  0.2991  0.0458 -0.1827
10898PP      PP21002   2.353  14.807  11.551  0.2948  0.0429  0.1631
10899PP      PP21003   7.518  12.909  13.135 -0.1378 -0.0646  0.0732
10900PP      PP21004   9.375   8.995  10.751  0.1683  0.2714 -0.2258
10901PP      PP21005   1.193   5.820  12.766  0.2891  0.2305 -0.4493
10902PP      PP21006  10.622  10.754  12.584  0.0382  0.2540 -0.4982
10903PP      PP21007   8.275   0.179   9.793  0.0920 -0.0325 -0.0175
10904PP      PP21008   5.788   5.888   9.571  0.0202  0.1920 -0.2124
10905PP      PP21009  13.220   8.661  12.852  0.0134  0.1901 -0.1485
10906PP      PP21010   3.582   9.691   1.212 -0.0522  0.2455 -0.0428
10907PP      PP21011   9.968   5.336   0.302 -0.2684  0.4255  0.2468
10908PP      PP21012  11.498  10.224   9.921  0.2366 -0.0525 -0.0520
10909PP      PP21013   7.229  14.550  13.009  0.5240 -0.0822 -0.0015
10910PP      PP21014   0.866  13.915   9.422 -0.1305 -0.0146  0.2556
10911PP      PP21015   0.328  12.550   3.445 -0.1001 -0.0998 -0.0845
10912PP      PP21016  13.419   6.149   7.976 -0.1084 -0.0034  0.2777
10913PP      PP21017   8.537  14.989  12.784  0.2032  0.1415 -0.0980
10914PP      PP21018   3.859  10.858  11.764  0.1046  0.0879 -0.1189
10915PP      PP21019  10.836   2.602   3.241 -0.1754 -0.2088 -0.1653
10916PP      PP21020   8.428   0.539   0.914 -0.0521  0.2061  0.1269
10917PP      PP21021   0.579   0.333  10.485  0.2308 -0.0557  0.1576
10918PP      PP21022  15.441  15.875  10.190 -0.0667 -0.1385  0.1284
10919PP      PP21023  15.641   1.792   8.411  0.1159 -0.0398  0.3575
10920PP      PP21024   6.434   1.366  12.498  0.0950  0.2743  0.1332
10921PP      PP21025   3.006  13.438   9.554 -0.0936 -0.0710 -0.2211
10922PP      PP21026   0.717   3.343   3.802 -0.3279  0.1245 -0.0753
10923PP      PP21027   0.096   7.904  12.360  0.0063 -0.0009 -0.0018
10924PP      PP21028   2.705  13.941  11.569 -0.1132 -0.0118 -0.0711
10925PP      PP21029   3.841   8.140  10.229 -0.0080 -0.1498  0.0827
10926PP      PP21030  12.238  10.159  13.515 -0.1430 -0.0510 -0.0415
10927PP      PP21031   5.752  14.423   9.147  0.1306 -0.0950  0.3208
10928PP      PP21032  14.060   8.189   8.481  0.0669  0.1241  0.1297
10929PP      PP21033   5.277  12.420  11.664  0.0534 -0.0102  0.0390
10930PP      PP21034   3.341  11.940   0.801 -0.0195 -0.4141  0.1126
10931PP      PP21035  14.123   2.692   3.312 -0.1193 -0.0785 -0.1838
10932PP      PP21036   7.790   9.078   9.619  0.2536  0.1392  0.0247
10933PP      PP21037  14.431   6.021  10.643  0.2527  0.0250  0.0135
10934PP      PP21038   7.911   1.535  11.641  0.2409 -0.1103 -0.2786
10935PP      PP21039   9.781   3.915   4.660  0.0481  0.2436 -0.1465
10936PP      PP21040   0.858  10.012   9.829 -0.0253 -0.5620  0.1891
10937PP      PP21041  14.944   4.367   2.052  0.0337  0.2187 -0.2540
10938PP      PP21042   2.368  11.684   3.498  0.2360 -0.1103 -0.2180
10939PP      PP21043   2.518  11.677  10.420 -0.2046 -0.1432  0.0224
10940PP      PP21044   1.734  14.054   4.273  0.2250 -0.1253  0.3189
10941PP      PP21045   5.855   1.478   2.296  0.2767 -0.2441 -0.1760
10942PP      PP21046  10.674  10.122   2.620  0.1345  0.0544  0.0276
10943PP      PP21047   4.148   9.637   0.493 -0.1915 -0.2980 -0.3022
10944PP      PP21048   2.838  15.804  13.329 -0.2769  0.0414 -0.1115
10945PP      PP21049  11.673  13.082  12.351  0.0649  0.0157 -0.1798
10946PP      PP21050   9.606   0.119  10.167 -0.1748  0.1324 -0.0601
10947PP      PP21051   4.800   8.068   3.606 -0.2649 -0.0187 -0.0410
10948PP      PP21052   3.302   6.269  13.539  0.2211 -0.0519  0.0119
10949PP      PP21053  11.411   9.430  10.610 -0.2120  0.0300 -0.0710
10950PP      PP21054   6.436   7.645  13.126  0.1111 -0.0661  0.1487
10951PP      PP21055   5.871  14.896  12.589 -0.0519 -0.3971 -0.0060
10952PP      PP21056   3.778   4.085  10.270  0.3246 -0.0182  0.1021
10953PP      PP21057   8.945  15.666   2.128  0.2506  0.1762 -0.0052
10954PP      PP21058   7.901  13.276   2.001  0.5089  0.2448 -0.2045
10955PP      PP21059  14.120  12.065  11.100 -0.0068  0.0949  0.1693
10956PP      PP21060   9.456  11.100   3.898  0.2164 -0.1148 -0.2028
10957PP      PP21061  12.272  14.379  10.407  0.0776  0.1116  0.0454
10958PP      PP21062   8.292  14.886   4.419 -0.2610  0.0371 -0.2390
10959PP      PP21063   2.943   2.323   2.552 -0.0968  0.2944  0.3390
10960PP      PP21064   5.455   5.602   9.010  0.2530  0.1828 -0.0323
10961PP      PP21065   0.484   3.944   2.192 -0.1768 -0.0595 -0.2521
10962PP      PP21066   6.097  14.163  11.456  0.0863  0.0769 -0.1361
10963PP      PP21067  10.839  11.785   2.920 -0.0553  0.2616  0.2133
10964PP      PP21068   4.734   3.743   4.252  0.0550 -0.1076 -0.3061
10965PP      PP21069   3.622  13.747  13.085 -0.0664 -0.0927 -0.0679
10966PP      PP21070   9.200  11.628   3.961 -0.0201 -0.0319 -0.1581
10967PP      PP21071   8.407   3.622  12.342  0.0129  0.2915  0.2714
10968PP      PP21072   5.767   1.458   4.251  0.1073  0.1076 -0.3588
10969PP      PP21073   8.089   2.248  12.258  0.0451  0.2167 -0.0755
10970PP      PP21074  15.663  11.877  11.819 -0.0019 -0.1168  0.0615
10971PP      PP21075   3.981  14.233  10.520  0.2005 -0.0243  0.2240
10972PP      PP21076   6.218   6.891  10.390  0.1201  0.1896  0.0215
10973PP      PP21077  11.491  13.572  11.085 -0.1879 -0.1156  0.1824
10974PP      PP21078  10.806  13.961  10.671  0.0246 -0.1063  0.1685
10975PP      PP21079   2.667   1.881  12.079  0.3380  0.0363  0.0073
10976PP      PP21080  11.980   4.851   2.590 -0.1848  0.1260  0.0925
10977PP      PP21081  12.599  12.038  11.761 -0.4728 -0.1340 -0.3448
10978PP      PP21082  14.265  13.124   3.323 -0.0647 -0.0613  0.2057
10979PP      PP21083   3.434   4.925  12.198  0.0480  0.4869  0.0656
10980PP      PP21084  15.522  15.235  13.007 -0.0937  0.2175 -0.3031
10981PP      PP21085   6.546   5.993   0.380 -0.2057 -0.0391 -0.1006
10982PP      PP21086   8.582  15.850  12.730  0.5392 -0.2223 -0.3263
10983PP      PP21087  12.284   9.040   3.067  0.3053 -0.0305 -0.2611
10984PP      PP21088   9.905  10.200  12.702  0.0646  0.2350 -0.3493
10985PP      PP21089   2.883   0.211   0.699  0.1416  0.0402  0.0103
10986PP      PP21090   5.552   5.494  11.413  0.1276  0.1470 -0.0958
10987PP      PP21091  10.739   4.506  12.125 -0.2075  0.0110  0.2425
10988PP      PP21092  15.249   4.956  11.493 -0.2480  0.2038  0.0443
10989PP      PP21093   6.673   8.805   1.934  0.2697 -0.1622 -0.0327
10990PP      PP21094   6.451   6.915  11.132  0.0751 -0.1520  0.0460
10991PP      PP21095  13.611   9.320  10.927  0.2157  0.1352 -0.2167
10992PP      PP21096   6.737   5.901  11.804 -0.0106  0.0790  0.3176
10993PP      PP21097   5.094   7.462   1.768 -0.0766 -0.0911  0.0837
10994PP      PP21098   1.558   1.811   4.084  0.1045 -0.5591 -0.0860
10995PP      PP21099   5.186   7.845   4.397  0.1140 -0.1245  0.2091
10996PP      PP21100   3.566   0.035   9.740 -0.0361 -0.1335  0.0565
10997PP      PP21101   1.104   6.299  12.656  0.1501  0.0711  0.0382
10998PP      PP21102  11.511   7.870  11.242 -0.1882  0.0593  0.3503
10999PP      PP21103   1.168  13.688  12.467 -0.1690  0.2005  0.0723
11000PP      PP21104   0.269   5.586  12.689  0.2118  0.1985  0.1690
11001PP      PP21105   7.628  11.094   9.999 -0.0027 -0.0143 -0.0699
11002PP      PP21106  12.165   3.725   1.741  0.0215 -0.2855 -0.1884
11003PP      PP21107  14.315  12.636   1.642  0.0861  0.0145  0.2644
11004PP      PP21108   3.590  10.983   3.502 -0.2404  0.1575  0.3050
11005PP      PP21109  12.709  15.836   3.148 -0.0203  0.0253  0.0524
11006PP      PP21110  13.366   7.929  10.910  0.0052  0.0376 -0.2553
11007PP      PP21111  11.204   1.017   2.083 -0.1600 -0.1676 -0.1238
11008PP      PP21112  13.243   7.026   3.504 -0.1513 -0.0099  0.3233
11009PP      PP21113   9.430   8.710  10.291 -0.2981  0.0799  0.1238
11010PP      PP21114  15.330   6.347   0.338  0.0583  0.0518 -0.1270
11011PP      PP21115   9.201  12.190  12.118  0.0907 -0.0137 -0.1031
11012PP      PP21116  11.906   4.465  11.071 -0.1680 -0.1662 -0.0508
11013PP      PP21117   1.387  10.250   3.286  0.0317 -0.0919 -0.0890
11014PP      PP21118  10.171  14.242   3.924 -0.3241  0.1484  0.0376
11015PP      PP21119   3.292   5.488   8.959 -0.0456 -0.2282  0.1944
11016PP      PP21120   5.016  14.643  12.332 -0.2402  0.0494  0.1170
11017PP      PP21121  12.781   3.078  11.953 -0.1403 -0.0082  0.2017
11018PP      PP21122   4.761  13.151   0.238  0.0024 -0.1040 -0.1013
11019PP      PP21123  11.611   1.157  13.331  0.2193  0.0048 -0.1969
11020PP      PP21124   6.407   6.825  12.858  0.0077 -0.0366  0.2566
11021PP      PP21125   4.386   1.221   1.667  0.0982 -0.1522  0.1269
11022PP      PP21126  10.977  12.008  10.147  0.1544  0.2417 -0.1620
11023PP      PP21127   4.852   6.891   2.372  0.0751 -0.0899 -0.2873
11024PP      PP21128  15.875   7.199   0.512 -0.1982  0.1916  0.0663
11025PP      PP21129   5.287  12.847   4.434  0.0731  0.1552 -0.0631
11026PP      PP21130   8.242   1.808   0.639 -0.3926 -0.3381  0.4479
11027PP      PP21131  12.802   8.633   8.334  0.1534 -0.1376  0.2299
11028PP      PP21132   0.296   8.636  13.034 -0.1902  0.0398  0.4144
11029PP      PP21133  12.125   8.230   2.001 -0.0108  0.0033  0.0706
11030PP      PP21134   9.724   2.777   2.792 -0.3075  0.0014 -0.2089
11031PP      PP21135  12.164  11.186   3.935 -0.0402  0.1008  0.0975
11032PP      PP21136  11.364   2.406   9.675  0.0522  0.1850 -0.0013
11033PP      PP21137  12.292   1.728  11.752  0.1980  0.2513 -0.1011
11034PP      PP21138   5.581   6.536   9.340 -0.3712 -0.2208  0.1375
11035PP      PP21139   2.503   2.389   2.270 -0.1743 -0.0170 -0.3222
11036PP      PP21140   0.878   4.604   1.101  0.0294 -0.3334 -0.0252
11037PP      PP21141   3.754  13.114  12.289  0.0995  0.1710  0.2724
11038PP      PP21142  13.118   7.491   0.120  0.0576 -0.2739  0.0460
11039PP      PP21143   1.891   0.121   2.202  0.0331 -0.3155  0.1708
11040PP      PP21144  10.006   1.821   3.806 -0.0859  0.0328 -0.1120
11041PP      PP21145   2.312  11.349  13.268 -0.1626 -0.3556  0.3407
11042PP      PP21146  10.803   5.747   1.037 -0.1654  0.2129 -0.0644
11043PP      PP21147   9.766   2.374   2.068  0.0146 -0.0743  0.1038
11044PP      PP21148   6.012  14.461   4.756  0.2111  0.0614 -0.0067
11045PP      PP21149  15.168   4.622  13.138 -0.0592  0.0062 -0.1808
11046PP      PP21150  13.157   2.761   9.157  0.2655 -0.0839 -0.1260
11047PP      PP21151   1.139   3.761  10.311 -0.0434 -0.0344  0.3199
11048PP      PP21152   4.223   7.098   2.908  0.0603  0.3324 -0.0628
11049PP      PP21153   4.105  14.014   1.296 -0.0636 -0.1749  0.0043
11050PP      PP21154   3.713   0.417  12.288  0.2576 -0.0405  0.0376
11051PP      PP21155   1.461   3.229   4.417  0.0727  0.2372  0.1787
11052PP      PP21156   9.103   6.867   2.794 -0.1694 -0.2422 -0.1608
11053PP      PP21157   5.501  12.437  10.371 -0.0262  0.1162  0.3862
11054PP      PP21158  10.402  12.846   9.830 -0.2870 -0.2119 -0.0090
11055PP      PP21159  13.329   7.303   7.431  0.4648  0.0782 -0.0102
11056PP      PP21160   1.578  13.669   3.879  0.3000  0.1779 -0.0277
11057PP      PP21161   6.692  15.562   3.729 -0.0880 -0.0352 -0.0466
11058PP      PP21162  11.563   3.258  11.303 -0.0411  0.0198 -0.0007
11059PP      PP21163  15.360   5.380   8.383 -0.3371  0.0009 -0.0653
11060PP      PP21164  14.151   9.675   2.559 -0.1076  0.1304 -0.0478
11061PP      PP21165   3.551   4.377  11.633 -0.4204 -0.1868  0.1100
11062PP      PP21166   9.123   5.028   9.320 -0.1321  0.1099  0.2408
11063PP      PP21167   7.988  12.168  12.528  0.2362 -0.2350  0.0497
11064PP      PP21168  11.968   1.571  12.144  0.3349 -0.1273  0.0488
11065PP      PP21169  11.631   6.651   8.053  0.1114  0.1655 -0.2449
11066PP      PP21170   6.432  11.206   3.871  0.1293  0.0064  0.1697
11067PP      PP21171   0.012   9.357   4.088  0.5153 -0.2981  0.1652
11068PP      PP21172  11.395  15.137   1.149 -0.0012  0.0722 -0.0088
11069PP      PP21173   9.102  12.326   9.919 -0.0077 -0.1927 -0.1973
11070PP      PP21174   9.711   4.920   2.190 -0.0646  0.3752  0.5281
11071PP      PP21175  12.780   6.645   8.306  0.0173 -0.0620 -0.2006
11072PP      PP21176   3.691   5.836  12.264 -0.1774  0.2184  0.2173
11073PP      PP21177  14.802  11.462  11.393 -0.0991 -0.1896  0.5526
11074PP      PP21178  11.703   0.722  10.104  0.0324  0.0274  0.3399
11075PP      PP21179   8.230  11.069   0.351  0.0698  0.1727 -0.0658
11076PP      PP21180   1.788   1.753  13.068 -0.0909 -0.1779 -0.0736
11077PP      PP21181  10.650  11.171   3.746  0.0274 -0.0253  0.1315
11078PP      PP21182  11.870   8.995  11.175  0.1946 -0.1011  0.0696
11079PP      PP21183   7.674   4.087  12.127  0.0103  0.1021  0.0659
11080PP      PP21184   6.883   5.202  13.026  0.0067  0.0651 -0.3033
11081PP      PP21185  14.206   3.054   3.842 -0.3331  0.0720  0.3453
11082PP      PP21186   4.336  14.849   3.606  0.0609 -0.0084  0.2471
11083PP      PP21187   1.953   2.065   4.278 -0.0176 -0.2334  0.3659
11084PP      PP21188   5.159  15.331   2.477 -0.1429  0.3222 -0.0599
11085PP      PP21189   1.091   1.596   4.351  0.1606  0.1821 -0.0578
11086PP      PP21190   3.304   2.658   9.865 -0.1585 -0.1661  0.0485
11087PP      PP21191  11.121  11.327   1.027 -0.0146 -0.1376  0.1486
11088PP      PP21192   4.910   0.600  13.100  0.1756 -0.0161  0.3091
11089PP      PP21193   1.042   0.409  13.434 -0.4045  0.0189  0.2486
11090PP      PP21194   9.257   0.477   1.580  0.0577  0.1508  0.0168
11091PP      PP21195   2.491  11.065   0.149  0.2950  0.1583 -0.1022
11092PP      PP21196   2.357  14.436   2.696  0.2155 -0.0326  0.3113
11093PP      PP21197   6.583  13.252   9.733 -0.2186  0.0667 -0.1407
11094PP      PP21198  12.436   3.529   9.354 -0.2326  0.0751 -0.1820
11095PP      PP21199  14.203  10.988   9.587 -0.1964 -0.3467  0.1456
11096PP      PP21200   8.629  15.834  10.726  0.0954 -0.0739  0.2827
11097PP      PP21201   1.438   4.470   4.130  0.1603  0.0870 -0.1102
11098PP      PP21202   7.049  10.789   4.470  0.3967  0.1665  0.2566
11099PP      PP21203  10.134   0.657   1.635 -0.0075  0.2638 -0.0171
11100PP      PP21204   4.485   3.389   4.549 -0.2168  0.1799 -0.0177
11101PP      PP21205   4.444   1.308  12.059 -0.0187  0.2085 -0.5331
11102PP      PP21206  12.862   3.370   3.171  0.1422  0.1791 -0.1309
11103PP      PP21207  13.826  14.675   1.526  0.2009 -0.1764  0.2488
11104PP      PP21208   4.471   8.875  12.561 -0.0709 -0.1712  0.0692
11105PP      PP21209   8.859   9.523   4.098 -0.0936 -0.0794 -0.3797
11106PP      PP21210  14.018  14.027   0.525  0.2900  0.0951 -0.2460
11107PP      PP21211   8.728   7.689  10.722  0.2367 -0.3506 -0.0526
11108PP      PP21212  13.149  15.081   0.148 -0.0561  0.1661  0.1354
11109PP      PP21213   0.602   8.866   1.043 -0.4630 -0.1905  0.1326
11110PP      PP21214  12.748   1.417  12.851 -0.1233  0.0247  0.0800
11111PP      PP21215   7.446   9.001   0.614 -0.0160  0.3228  0.0917
11112PP      PP21216   2.943   8.818   8.573  0.0140 -0.1756  0.0248
11113PP      PP21217   7.691   2.039  11.848 -0.0722  0.1507  0.1180
11114PP      PP21218   3.887   4.744  12.908 -0.1099  0.1581  0.2947
11115PP      PP21219   8.902   7.618  13.251  0.2537  0.1064 -0.2308
11116PP      PP21220   5.967   1.891  10.790  0.0123 -0.0965  0.0523
11117PP      PP21221   8.778   5.339  10.970 -0.2061 -0.2685 -0.0819
11118PP      PP21222   9.616   3.158   2.075 -0.2998  0.0283  0.1687
11119PP      PP21223   5.022   4.603   3.312  0.1201  0.1870  0.0027
11120PP      PP21224   6.947  10.017   4.023  0.1185 -0.0579  0.0500
11121PP      PP21225   2.662   2.325  12.254 -0.0387 -0.0113  0.1185
11122PP      PP21226  14.689  15.419  11.245 -0.2178 -0.3439 -0.2317
11123PP      PP21227  15.534  11.940   3.228  0.2122 -0.1066 -0.0856
11124PP      PP21228  10.996   0.006   4.448 -0.1818 -0.0136  0.0585
11125PP      PP21229   1.893   6.256   4.535  0.3458 -0.1476  0.0036
11126PP      PP21230  13.683   9.600   3.728 -0.1444  0.2205 -0.3864
11127PP      PP21231   7.842  11.755   8.744 -0.0335 -0.1470  0.0409
11128PP      PP21232   1.283  12.778   3.995 -0.0537 -0.2166 -0.1153
11129PP      PP21233   4.229   9.495  12.341  0.0788 -0.0409  0.1683
11130PP      PP21234   8.146  10.102   0.194 -0.0145 -0.0074  0.1500
11131PP      PP21235   6.906   4.866   9.514  0.1667 -0.0806  0.0163
11132PP      PP21236  11.934  14.732   4.317 -0.3646  0.0543  0.1697
11133PP      PP21237  11.974   3.530   0.266 -0.2130 -0.0763  0.2830
11134PP      PP21238   7.850  11.534  10.253  0.0941 -0.1123 -0.0090
11135PP      PP21239  10.378   0.489   5.233  0.0549 -0.1201 -0.1662
11136PP      PP21240   1.941   6.853  12.581 -0.2851  0.0577 -0.0380
11137PP      PP21241  15.305   2.446   9.326  0.2184 -0.0505  0.1459
11138PP      PP21242   3.308   2.332   1.614 -0.0234 -0.1972  0.0912
11139PP      PP21243   1.205  12.044  13.499  0.1574  0.1212  0.4712
11140PP      PP21244  14.589   5.996   9.414  0.1567 -0.1057 -0.0193
11141PP      PP21245  15.504   5.626  12.195 -0.2214 -0.0108  0.0553
11142PP      PP21246   6.316  12.726  11.603  0.1084 -0.1445  0.0740
11143PP      PP21247  12.274   0.987  12.816 -0.1480 -0.0919  0.0189
11144PP      PP21248   8.247  12.727  10.458  0.0396  0.2369 -0.0393
11145PP      PP21249   3.889  15.198   0.514 -0.0445  0.0021 -0.3517
11146PP      PP21250  10.238   1.537   4.149 -0.0226 -0.1106 -0.0510
11147PP      PP21251  13.690   2.886   9.504 -0.0007  0.0846 -0.2265
11148PP      PP21252  12.175  12.279  11.915  0.1835 -0.1681 -0.0215
11149PP      PP21253  15.395   1.502  12.002 -0.0686  0.0265  0.0385
11150PP      PP21254  13.982   9.328   9.970  0.0394 -0.1455  0.0115
11151PP      PP21255   0.072  10.730  11.868 -0.1260  0.0212 -0.2331
11152PP      PP21256   3.256  15.784   0.142  0.0614  0.0352 -0.2983
11153PP      PP21257   3.904  13.564   8.551 -0.1135 -0.1110 -0.0708
11154PP      PP21258   5.676   4.360  11.938  0.1217 -0.3834 -0.0906
11155PP      PP21259   0.880   0.570   9.365  0.0500  0.0110 -0.2614
11156PP      PP21260  10.051   9.767   1.176  0.1709  0.0528  0.1822
11157PP      PP21261   0.283   3.560   3.545  0.0651  0.0589 -0.0970
11158PP      PP21262   1.159   6.573   1.280 -0.0823 -0.1276  0.0078
11159PP      PP21263   0.222   0.595  11.171  0.0924  0.1170  0.0024
11160PP      PP21264   0.725   0.123   0.198  0.1731  0.2187  0.0615
11161PP      PP21265   4.012   4.172   0.951  0.0620  0.0351  0.0894
11162PP      PP21266  11.781  11.837   0.514  0.0197  0.0200 -0.0001
11163PP      PP21267   6.224   6.500   0.708  0.0535 -0.0311  0.0805
11164PP      PP21268  15.805   1.190   9.715  0.1626 -0.0503  0.1161
11165PP      PP21269   0.279   1.079   3.652  0.0347 -0.0427  0.0446
11166PP      PP21270  12.854   3.296   3.695 -0.1966 -0.0410  0.1314
11167PP      PP21271  10.433   4.678  10.875  0.1943  0.3167 -0.0541
11168PP      PP21272  11.994  12.319   1.240 -0.0806 -0.0760  0.0823
11169PP      PP21273  15.065   0.547   1.723 -0.0211 -0.2292  0.1206
11170PP      PP21274   0.988   5.354   3.049  0.4205  0.0532 -0.2380
11171PP      PP21275   1.660   4.954  10.833  0.1507  0.0291 -0.0847
11172PP      PP21276  14.535   1.925  13.383  0.0600 -0.1460  0.4170
11173PP      PP21277  14.271  11.664   1.436 -0.1234 -0.0311  0.2447
11174PP      PP21278   7.595   2.796  13.538 -0.6733 -0.1489 -0.1031
11175PP      PP21279  11.050   5.771   0.584  0.1360  0.1136 -0.0275
11176PP      PP21280   4.123   2.342  13.097 -0.1278  0.0642 -0.1210
11177PP      PP21281   2.387   6.768  10.369 -0.0424  0.2187  0.0378
11178PP      PP21282  12.051   4.992  11.374  0.0799 -0.1897  0.0246
11179PP      PP21283   3.219   5.661  11.057 -0.0173  0.0518 -0.1562
11180PP      PP21284  13.797   3.125   3.397 -0.0209  0.2153 -0.2098
11181PP      PP21285   2.665   5.450   1.773  0.1159 -0.0292  0.1094
11182PP      PP21286  13.326   6.655  12.748  0.0682  0.2900  0.0587
11183PP      PP21287   2.167   5.779  11.152 -0.0306 -0.1885  0.1785
11184PP      PP21288   4.863  14.437   9.871  0.3590 -0.1820  0.0166
11185PP      PP21289  12.563   3.767   2.151  0.1669 -0.3277  0.3692
11186PP      PP21290   0.885   2.325   3.827  0.1467  0.0065  0.3356
11187PP      PP21291  10.002   4.140   0.496  0.3063 -0.1535  0.0187
11188PP      PP21292   5.047   7.767   8.682  0.0163 -0.2637  0.1172
11189PP      PP21293  14.273   1.176   3.399 -0.1449 -0.1011  0.5894
11190PP      PP21294  15.200   1.797  13.332 -0.0265 -0.1026  0.4264
11191PP      PP21295   2.026   8.081   9.209  0.2281  0.0239  0.2013
11192PP      PP21296  13.703   6.287   8.555  0.3251 -0.0794  0.0450
11193PP      PP21297  15.345   9.455   1.791  0.3802 -0.1971 -0.0881
11194PP      PP21298   8.621   0.222  13.170 -0.1831  0.0398  0.1313
11195PP      PP21299  10.877  15.443  12.872 -0.1591 -0.0985  0.0554
11196PP      PP21300   7.839  12.954   9.292 -0.1230  0.4216 -0.0767
11197PP      PP21301   6.370  14.757   4.830 -0.2967 -0.2726  0.0308
11198PP      PP21302  14.243   5.243   7.916  0.2106  0.2054 -0.0006
11199PP      PP21303   1.681   1.501   1.877  0.1780  0.3282 -0.4572
11200PP      PP21304   3.603   4.788   3.981  0.1688  0.3844 -0.1611
11201PP      PP21305   3.131  10.096   9.202  0.3038 -0.0710  0.2075
11202PP      PP21306   7.105  13.101  10.753 -0.1589 -0.2431 -0.0325
11203PP      PP21307  15.040  11.996   0.821 -0.2039 -0.1115  0.0354
11204PP      PP21308   2.044  11.633   4.110  0.0398  0.0175 -0.3054
11205PP      PP21309   4.490  13.994  11.636  0.1116 -0.1136 -0.1295
11206PP      PP21310  12.515  15.518   9.847  0.1211 -0.0704  0.0259
11207PP      PP21311  10.408  12.552   1.770 -0.1510 -0.0125  0.1191
11208PP      PP21312   2.455   9.390   1.932 -0.0035  0.1640 -0.1536
11209PP      PP21313  14.369   9.339  11.246  0.1757 -0.0859 -0.3603
11210PP      PP21314   5.965   2.048  11.920 -0.0284 -0.1300 -0.3919
11211PP      PP21315   1.659  11.029   3.831  0.1008  0.1151 -0.1555
11212PP      PP21316   0.601   1.614   2.896 -0.0362  0.0849 -0.1075
11213PP      PP21317   5.761   6.648   0.474  0.2409 -0.0972  0.0749
11214PP      PP21318   8.827  12.545   1.309 -0.2233  0.0697  0.3975
11215PP      PP21319   4.479  11.651   1.292 -0.1788 -0.0839  0.0257
11216PP      PP21320   9.577   3.413   4.632 -0.0667  0.0516  0.1832
11217PP      PP21321   2.659  10.901  10.219  0.3314  0.2519  0.4443
11218PP      PP21322  15.261  14.441  11.122 -0.3231  0.2433 -0.0893
11219PP      PP21323  12.210  14.305   4.056  0.3164  0.2176  0.0347
11220PP      PP21324   0.163   3.198  11.407 -0.2335  0.1679  0.2056
11221PP      PP21325   7.409  10.629  12.063  0.0280 -0.3150  0.1001
11222PP      PP21326  13.433  10.945  12.813  0.1826 -0.1612  0.0286
11223PP      PP21327   6.956   5.273   2.041 -0.0965 -0.0940  0.1509
11224PP      PP21328   5.572   3.356   8.768  0.0486 -0.0049 -0.1929
11225PP      PP21329   2.514   6.936   4.739 -0.1396  0.1152 -0.0541
11226PP      PP21330   9.174   7.498  12.861  0.1000 -0.2979  0.1787
11227PP      PP21331  11.413  10.929  10.351 -0.1108  0.1647  0.0495
11228PP      PP21332   6.049   9.205   4.462 -0.0849 -0.0926  0.1387
11229PP      PP21333  11.264  15.755  12.141 -0.5809  0.2122 -0.1375
11230PP      PP21334  12.734  14.360   8.885  0.2352  0.0767  0.3272
11231PP      PP21335  13.482   9.498   0.406  0.3228 -0.2680 -0.0733
11232PP      PP21336  11.791   9.383   1.118  0.1281 -0.1185 -0.1350
11233PP      PP21337   1.826   6.630   0.745  0.2883 -0.0780  0.1061
11234PP      PP21338   0.710   2.747  13.179 -0.2861  0.2561  0.2683
11235PP      PP21339   1.497   4.969   3.977  0.1206  0.0727 -0.1213
11236PP      PP21340  10.515   3.398   0.758  0.0826 -0.0397  0.0083
11237PP      PP21341   0.710   8.397  12.686 -0.1035 -0.2619  0.1767
11238PP      PP21342   1.636   3.613  10.453 -0.0924  0.0086  0.0931
11239PP      PP21343   3.995  12.343   0.136 -0.1712  0.2169 -0.1967
11240PP      PP21344  14.497  15.305  10.383  0.1009  0.3639  0.0200
11241PP      PP21345  12.570   0.410  11.373 -0.0663 -0.3181 -0.2002
11242PP      PP21346   7.927   5.989   9.513  0.0659  0.0068  0.3996
11243PP      PP21347  13.658   7.799  10.456 -0.2406  0.1676 -0.1592
11244PP      PP21348   2.465   0.761   1.120  0.2861 -0.0226  0.0689
11245PP      PP21349   7.240  10.337   9.601  0.3130 -0.1936  0.1060
11246PP      PP21350  14.259   2.291  10.909  0.3101 -0.0775 -0.0727
11247PP      PP21351   7.180  12.278  12.248 -0.1310 -0.2451 -0.0363
11248PP      PP21352  11.104   8.967  12.562 -0.2967 -0.0603 -0.2924
11249PP      PP21353  12.425   5.387  13.454  0.1854 -0.0198 -0.2401
11250PP      PP21354   1.162  13.302   4.145  0.0258  0.1571 -0.0265
11251PP      PP21355   7.892  14.787   3.991  0.5121  0.2287 -0.2049
11252PP      PP21356  12.521  12.989  11.830 -0.4455  0.3955 -0.1379
11253PP      PP21357   1.687   8.745  12.824 -0.1326 -0.0143 -0.0169
11254PP      PP21358   3.388   5.710   1.522  0.0356 -0.1535 -0.2142
11255PP      PP21359  15.482  10.959   2.308 -0.0804 -0.0197 -0.1285
11256PP      PP21360  15.240   0.274  12.611  0.1486  0.0372 -0.2545
11257PP      PP21361   9.106   4.777   9.781 -0.1907 -0.0885 -0.2099
11258PP      PP21362   7.008  11.562  10.844  0.0848 -0.3382 -0.1902
11259PP      PP21363   4.157   2.787   4.630 -0.0107  0.1868  0.0170
11260PP      PP21364   1.771  13.678   1.595  0.1440  0.1334 -0.2618
11261PP      PP21365   2.964   9.269   8.823 -0.0413  0.0099  0.0460
11262PP      PP21366   2.941   9.780   3.137 -0.2637 -0.2051  0.0345
11263PP      PP21367   3.930   9.322   3.638 -0.2629  0.0800  0.1765
11264PP      PP21368  13.751  10.305  10.202  0.1883  0.0455 -0.2534
11265PP      PP21369  10.270   6.186   2.697  0.3509 -0.0737  0.0331
11266PP      PP21370   2.639  14.652  10.438  0.1443  0.1140  0.1283
11267PP      PP21371  13.455   7.842   0.301  0.0481  0.0685 -0.0904
11268PP      PP21372   5.601   3.810   0.086 -0.3013 -0.2423 -0.0938
11269PP      PP21373   1.537   8.287   3.857  0.1797  0.2966  0.0397
11270PP      PP21374  10.100   2.421   1.180 -0.2823 -0.1461  0.1707
11271PP      PP21375   9.735  10.220   1.456  0.1351  0.2407 -0.0180
11272PP      PP21376  10.076   6.182   7.401  0.2346 -0.1718  0.2222
11273PP      PP21377  10.438   8.687   1.526 -0.1572  0.1061  0.0904
11274PP      PP21378  11.826  13.601   1.521  0.1453  0.2653 -0.1531
11275PP      PP21379  11.753   6.489   8.492  0.0993  0.0331 -0.0072
11276PP      PP21380  12.494   7.664   9.315 -0.3742  0.1020  0.0667
11277PP      PP21381   8.725   5.158   2.888  0.0698  0.0468  0.1732
11278PP      PP21382  15.690   9.738  13.106  0.1184 -0.1196 -0.1811
11279PP      PP21383   5.247   6.541   1.198 -0.2695 -0.0874 -0.1297
11280PP      PP21384  13.435  13.920   1.947  0.0842  0.2716  0.2545
11281PP      PP21385   9.099   8.833   0.200 -0.1601 -0.2114 -0.0319
11282PP      PP21386  15.158   4.086  12.738  0.1255  0.0015  0.0805
11283PP      PP21387   3.420  15.152  12.674  0.1290  0.2981 -0.0441
11284PP      PP21388   4.616   7.223   3.595 -0.3616 -0.0728  0.0270
11285PP      PP21389   4.681   2.529   1.398 -0.0747 -0.1051  0.1741
11286PP      PP21390   7.497  13.142   2.882  0.2125  0.1258 -0.1960
11287PP      PP21391  14.946  12.729   2.279  0.0660  0.0646  0.4364
11288PP      PP21392  14.812  13.835  10.564 -0.1444 -0.1038 -0.0066
11289PP      PP21393  13.478   0.531   2.683  0.1288  0.2993  0.0826
11290PP      PP21394  11.144   2.770  10.373 -0.2946 -0.1724 -0.0304
11291PP      PP21395  13.371  11.459   2.378 -0.0653  0.0667  0.0398
11292PP      PP21396   7.866   5.400   9.889  0.0092 -0.3734  0.2157
11293PP      PP21397   6.868   8.749  11.305  0.1736  0.0556  0.0618
11294PP      PP21398   6.276  11.540  12.737 -0.1207  0.2285 -0.0175
11295PP      PP21399   0.544   9.861  10.855  0.0885  0.0803 -0.1943
11296PP      PP21400   5.951   5.107  12.444 -0.1741 -0.0395 -0.1034
11297PP      PP21401   4.339   8.563   9.026  0.2468  0.0951  0.0625
11298PP      PP21402   7.658   2.045  12.450  0.0775 -0.1234 -0.0076
11299PP      PP21403  15.037   8.312   3.348 -0.0481  0.2007 -0.2990
11300PP      PP21404   9.335   1.729   9.923 -0.0518  0.0108  0.0376
11301PP      PP21405   1.443   4.932   8.790 -0.0679  0.0959 -0.1267
11302PP      PP21406  10.255   4.619   0.800 -0.1931  0.2391  0.0353
11303PP      PP21407   0.059  12.783   1.571 -0.2223  0.0929 -0.1803
11304PP      PP21408  11.506   8.359  12.191 -0.1941  0.1318 -0.3334
11305PP      PP21409   5.489  10.328   9.719 -0.0877  0.0558 -0.1168
11306PP      PP21410  10.963   7.126  11.649 -0.0777  0.1194 -0.2439
11307PP      PP21411   7.575   5.062   9.154  0.2660  0.2093  0.1301
11308PP      PP21412   9.934   6.144   7.986  0.0901  0.0706  0.0892
11309PP      PP21413   7.219  10.696  11.439  0.0882 -0.0618  0.0219
11310PP      PP21414   1.830   0.418   2.561  0.1681  0.0606  0.0035
11311PP      PP21415   2.874   2.534   0.322 -0.1466 -0.2465 -0.1650
11312PP      PP21416  14.076  13.172   2.091 -0.3578  0.0009 -0.0725
11313PP      PP21417  10.364  12.767   3.120 -0.0799 -0.0249 -0.0555
11314PP      PP21418   7.319  13.867   9.633  0.0500 -0.1413  0.1577
11315PP      PP21419  11.770   2.783   0.496 -0.0958  0.0681  0.2270
11316PP      PP21420   5.120  15.791   3.208 -0.1018  0.2135 -0.1950
11317PP      PP21421  10.294   2.134   4.649  0.1322  0.2043  0.2320
11318PP      PP21422  10.643  15.044   0.234  0.2004  0.1573  0.0176
11319PP      PP21423   8.645   3.045  10.545 -0.2696 -0.0791  0.0124
11320PP      PP21424   0.594  11.864   3.186  0.0672  0.2029  0.0441
11321PP      PP21425   5.867   1.570   9.768 -0.0608  0.0020 -0.2960
11322PP      PP21426   5.432   9.297   0.906 -0.2844 -0.1496  0.0641
11323PP      PP21427   3.059   5.271   2.708  0.0069  0.2692  0.3136
11324PP      PP21428  12.751   9.237  12.127 -0.3231 -0.2640 -0.0028
11325PP      PP21429   6.508   7.783   8.566  0.1352 -0.0738 -0.0327
11326PP      PP21430  11.376   0.842   4.350  0.0643  0.1850 -0.1521
11327PP      PP21431   2.496   7.997   0.130  0.0726  0.1197 -0.0132
11328PP      PP21432   0.193   7.434   1.318 -0.0306  0.1981  0.0553
11329PP      PP21433   3.234   0.514   1.341 -0.0266 -0.0215  0.0430
11330PP      PP21434   9.772  14.918   2.334  0.1368  0.1636  0.0524
11331PP      PP21435   0.539   3.954   0.332 -0.1827  0.0304  0.0301
11332PP      PP21436   3.483  11.280   3.073 -0.0941 -0.0718  0.2378
11333PP      PP21437   5.449   7.255   8.830  0.0075 -0.0346 -0.3463
11334PP      PP21438  12.458   7.195   9.212  0.1279  0.0662 -0.1065
11335PP      PP21439   3.462  14.839   0.404  0.0827  0.0273 -0.1813
11336PP      PP21440  10.763   6.739   2.153 -0.0670 -0.1015  0.3405
11337PP      PP21441  14.117   4.671   0.579 -0.0171  0.2860  0.2694
11338PP      PP21442   7.669  14.935   9.610 -0.1940  0.1980  0.0733
11339PP      PP21443   9.973   6.542  12.480 -0.2694 -0.1726 -0.2088
11340PP      PP21444   5.043   2.987   2.770 -0.0004 -0.3263  0.0903
11341PP      PP21445  10.789   6.087  10.895  0.0804  0.0851  0.0199
11342PP      PP21446   3.019   1.978   4.474  0.0051 -0.1851  0.0624
11343PP      PP21447   3.953   6.238   0.437  0.1191 -0.0250  0.1788
11344PP      PP21448   7.744   1.553   9.226 -0.0694 -0.3013 -0.0594
11345PP      PP21449   3.107  13.311   8.865 -0.0746 -0.0415 -0.2128
11346PP      PP21450   0.733   2.051  11.451  0.0561 -0.1680  0.0306
11347PP      PP21451   3.794   4.489   3.170  0.0171  0.2490 -0.2049
11348PP      PP21452   7.837   1.470  12.902 -0.0288  0.3271  0.1539
11349PP      PP21453  14.441   1.411   1.572 -0.4469  0.2289  0.1424
11350PP      PP21454   2.555  14.883  12.763 -0.3060 -0.1279 -0.2646
11351PP      PP21455  12.319   9.649   3.412  0.3855  0.1253  0.2401
11352PP      PP21456  15.686  12.865   4.413 -0.0447 -0.0145 -0.1768
11353PP      PP21457  13.616   0.103   4.329 -0.0961  0.1371 -0.0962
11354PP      PP21458  13.023   9.116  13.220  0.0771  0.1568  0.0630
11355PP      PP21459   5.492  15.756  13.409  0.2218 -0.0770 -0.0460
11356PP      PP21460  14.680   6.086  11.049 -0.1213 -0.1321 -0.1882
11357PP      PP21461  15.015  14.212   2.717 -0.0255  0.3023  0.1764
11358PP      PP21462   1.763   4.363   1.292  0.2041  0.0064 -0.3756
11359PP      PP21463   4.722   3.731  10.105  0.1885 -0.3067  0.0698
11360PP      PP21464   2.540   6.021   0.913  0.2071 -0.0721  0.0699
11361PP      PP21465   0.443   1.270   1.545  0.0451 -0.2648 -0.3992
11362PP      PP21466  11.861   3.471   1.977 -0.0381 -0.1090 -0.2235
11363PP      PP21467   9.267   2.277   9.590 -0.1010 -0.1426  0.2077
11364PP      PP21468   2.310  10.013  10.949  0.0011  0.1673 -0.1331
11365PP      PP21469   9.990  13.204   9.899  0.0635 -0.2723 -0.0082
11366PP      PP21470   2.988  11.799   3.469 -0.1890  0.0474  0.0687
11367PP      PP21471   2.891   9.463   9.887  0.1066  0.2007 -0.3106
11368PP      PP21472  10.148  10.477   3.745 -0.0962 -0.1631  0.0022
11369PP      PP21473  15.694  14.462  10.273  0.0650 -0.1418  0.2721
11370PP      PP21474   6.467   4.874  10.995  0.0069 -0.0160 -0.0150
11371PP      PP21475   7.292  11.875   9.635  0.0755 -0.2616 -0.4077
11372PP      PP21476   8.815   4.396   9.979  0.0208  0.1382  0.0091
11373PP      PP21477   6.846   4.656  12.224  0.2565 -0.2376 -0.3507
11374PP      PP21478   9.105  13.323   2.789  0.0801 -0.1005  0.1607
11375PP      PP21479   0.576   8.182   1.094 -0.0414 -0.0133  0.0503
11376PP      PP21480   1.444   9.201   8.656 -0.2168 -0.0531 -0.1119
11377PP      PP21481   1.534   8.400   0.750  0.2002  0.1168  0.2866
11378PP      PP21482  10.627   3.170   2.929 -0.0227 -0.0571  0.0095
11379PP      PP21483   9.021   3.138   9.690  0.0493  0.2289 -0.1292
11380PP      PP21484   7.213   1.086   0.664  0.1792 -0.1052 -0.1793
11381PP      PP21485   7.771  15.488   2.542  0.0880 -0.0475 -0.1999
11382PP      PP21486   9.093   1.020  10.547  0.3520  0.0405  0.1443
11383PP      PP21487  10.651   0.662   0.041  0.0172 -0.1086  0.4164
11384PP      PP21488  11.163   6.862   1.532 -0.1571 -0.1116 -0.0851
11385PP      PP21489   6.947   7.834   4.088  0.0135  0.1624 -0.4545
11386PP      PP21490   6.876  14.485   9.793  0.1128  0.0706 -0.3814
11387PP      PP21491  13.705   7.475   9.576 -0.2233  0.0125  0.2225
11388PP      PP21492   3.892   8.749   9.244  0.2999  0.0835  0.0162
11389PP      PP21493  11.318   1.249   9.331 -0.3453  0.0389 -0.3391
11390PP      PP21494   3.830   2.271  11.667  0.1289 -0.0568  0.1444
11391PP      PP21495   2.871  13.306  12.950  0.0346  0.0155  0.1437
11392PP      PP21496   0.787  13.840   1.803  0.1169 -0.3202 -0.1435
11393PP      PP21497  10.538   4.665  11.669  0.0606  0.0064 -0.0785
11394PP      PP21498   4.315  11.036  12.172 -0.0772  0.1215 -0.3485
11395PP      PP21499   0.413  10.543   4.454 -0.1877 -0.0286 -0.2716
11396PP      PP21500   7.724   9.752  10.001 -0.2936  0.0314  0.0599
11397PP      PP21501   6.304  15.001   8.968 -0.0939 -0.0642  0.0751
11398PP      PP21502  11.914   8.039  10.818 -0.0662  0.0066  0.1163
11399PP      PP21503   8.858   6.573  11.659 -0.1126 -0.0290  0.0366
11400PP      PP21504  14.462  11.884  12.266 -0.2494  0.0709 -0.0315
11401PP      PP21505  11.663  14.531   9.143 -0.1239  0.1574 -0.1194
11402PP      PP21506   0.369   8.813   2.963  0.1155  0.0284 -0.2272
11403PP      PP21507  12.214  14.715   2.617  0.1259 -0.2132 -0.0671
11404PP      PP21508   7.602   0.684   0.546  0.0157 -0.0526 -0.1996
11405PP      PP21509  10.939  12.240   1.047 -0.0421 -0.0042  0.4380
11406PP      PP21510   0.717  15.133   0.786 -0.1218 -0.4446 -0.1537
11407PP      PP21511  11.740   8.024  13.331 -0.3520 -0.2738  0.0230
11408PP      PP21512   2.058  12.155  10.437 -0.1201  0.1933  0.1285
11409PP      PP21513  14.034  12.545  11.020 -0.1929 -0.0089 -0.2206
11410PP      PP21514   9.439  13.374  11.791 -0.1828  0.0496  0.1231
11411PP      PP21515  15.462  13.142   0.430  0.1509 -0.0781  0.0221
11412PP      PP21516  12.293   3.098   4.655  0.8186  0.2297 -0.2322
11413PP      PP21517   8.348  13.739   2.608 -0.0496 -0.0138  0.0707
11414PP      PP21518  15.830  11.345  11.034  0.1767  0.1551  0.2807
11415PP      PP21519  13.775   1.920   1.405 -0.2188  0.1746 -0.3378
11416PP      PP21520  12.683  12.450   4.077 -0.0348  0.1070 -0.3274
11417PP      PP21521  15.495  12.070   0.314  0.4309 -0.1441  0.3516
11418PP      PP21522   3.304  10.825  12.819 -0.0286  0.0406  0.1361
11419PP      PP21523   1.246  11.787  11.630 -0.1313  0.1437 -0.1522
11420PP      PP21524   9.953  15.008   2.826  0.0148  0.1006 -0.1706
11421PP      PP21525  13.229  15.046   9.132 -0.1663  0.2047 -0.1460
11422PP      PP21526   0.959  11.990   2.864 -0.5084 -0.0032  0.2763
11423PP      PP21527  10.528   9.228   1.038  0.2015  0.1403 -0.0620
11424PP      PP21528   3.392  13.624   0.708 -0.2915  0.1184 -0.1187
11425PP      PP21529   1.250   1.137   0.666 -0.1505 -0.0217  0.1323
11426PP      PP21530   6.019   9.190   2.743 -0.1411 -0.1561 -0.0890
11427PP      PP21531   3.580   7.957   2.265 -0.2451 -0.2324  0.0413
11428PP      PP21532  12.851  14.746   9.211 -0.2099 -0.1473  0.2173
11429PP      PP21533  13.964   0.350   3.445  0.0971 -0.0649 -0.1638
11430PP      PP21534  12.676  11.391   0.561  0.0842 -0.2920  0.0744
11431PP      PP21535   3.726   8.066  10.750 -0.1175 -0.0644  0.1157
11432PP      PP21536  14.139  12.949  13.133  0.3498 -0.2371 -0.1800
11433PP      PP21537   4.068   9.250   2.694 -0.1483 -0.2011  0.1564
11434PP      PP21538  14.051   6.005   9.566  0.0631 -0.0944  0.1547
11435PP      PP21539   5.746   5.960   2.253 -0.2727 -0.2574 -0.2850
11436PP      PP21540  14.507   4.074  10.831  0.0685 -0.1446 -0.0923
11437PP      PP21541   3.253  10.429  11.364 -0.1141  0.2004  0.2168
11438PP      PP21542   8.708   4.910  10.117  0.2756  0.0502  0.0600
11439PP      PP21543  11.988   1.834   4.011 -0.5267  0.1358  0.2040
11440PP      PP21544   0.517   2.034   3.210  0.2140 -0.0799 -0.1806
11441PP      PP21545   3.649   9.481   0.589  0.0128  0.1210 -0.0649
11442PP      PP21546  12.423   6.125  12.311 -0.2084 -0.1772 -0.0248
11443PP      PP21547   7.036  12.936   3.026 -0.0147  0.2903  0.1916
11444PP      PP21548   1.333   2.038  12.689  0.2339  0.1550 -0.1732
11445PP      PP21549   7.404  14.796  11.246  0.0640 -0.0017 -0.1285
11446PP      PP21550   2.329  14.389  12.466  0.2359 -0.0033 -0.0525
11447PP      PP21551   4.871   7.615   3.845 -0.0555 -0.3201  0.0677
11448PP      PP21552   7.546   7.658  12.543 -0.3599 -0.1466  0.1107
11449PP      PP21553  13.853   5.353   1.583 -0.0659  0.2547 -0.2868
11450PP      PP21554  15.613   4.329  12.741 -0.0682  0.1874  0.1712
11451PP      PP21555   0.998   3.702   0.019 -0.3766 -0.0979  0.3117
11452PP      PP21556   8.751  11.743   2.548  0.0999  0.2295  0.0561
11453PP      PP21557   8.989  15.836  13.059 -0.1386 -0.0797 -0.1485
11454PP      PP21558   6.520  11.592   3.522  0.0939  0.0107  0.1771
11455PP      PP21559   1.498   7.459  12.842 -0.1257  0.0462  0.0486
11456PP      PP21560   7.157  11.508   4.404  0.1197  0.1144  0.0078
11457PP      PP21561   3.034   0.777   1.886  0.0842  0.1881 -0.1476
11458PP      PP21562   8.298  14.567   2.685  0.2021 -0.0387 -0.0557
11459PP      PP21563   1.969   3.237  11.895 -0.1716 -0.3833 -0.1603
11460PP      PP21564   3.365   0.140  12.491  0.0383  0.1122  0.1904
11461PP      PP21565   0.644   8.396   4.207 -0.1910 -0.3352 -0.1607
11462PP      PP21566   8.660   9.912   9.697 -0.4568  0.3325 -0.2649
11463PP      PP21567   0.949  10.239  10.690  0.0972  0.1042 -0.1150
11464PP      PP21568  15.784  10.571  10.206  0.1522  0.2471 -0.2456
11465PP      PP21569   7.231   0.117   9.889  0.0423  0.1192  0.1715
11466PP      PP21570   2.111   4.370   0.934  0.1107 -0.0690  0.2333
11467PP      PP21571  14.287   3.616   1.940  0.0022 -0.0532 -0.2958
11468PP      PP21572   6.457   3.662   0.490  0.0310 -0.2314 -0.1372
11469PP      PP21573   0.999  13.668   2.303 -0.1665 -0.0626 -0.1705
11470PP      PP21574   9.531   6.291  12.212  0.1037 -0.2549  0.2636
11471PP      PP21575   5.777   4.762   1.189 -0.1992  0.2271  0.3491
11472PP      PP21576   5.842   6.884   9.588  0.0676 -0.0529 -0.2902
11473PP      PP21577  12.075   0.392   0.541  0.3919 -0.0842 -0.4163
11474PP      PP21578   5.410   3.710   3.252  0.1439  0.0741 -0.0722
11475PP      PP21579   0.727  11.384   0.131  0.0935 -0.0431 -0.0490
11476PP      PP21580   2.502   4.561  11.990 -0.0963 -0.2061  0.0829
11477PP      PP21581   9.307   0.447   9.918  0.3321  0.1042  0.0677
11478PP      PP21582   7.077  11.035  10.041  0.2026  0.1755  0.0399
11479PP      PP21583  10.809  10.000  12.118 -0.1172 -0.0377  0.1060
11480PP      PP21584   9.033   2.724  12.906 -0.0501 -0.3320 -0.1281
11481PP      PP21585  13.279  10.187   8.828  0.1823  0.0731  0.1081
11482PP      PP21586  15.098   2.376  11.516  0.0710  0.0703 -0.1881
11483PP      PP21587   3.437   9.665  10.258 -0.1105 -0.0069 -0.0348
11484PP      PP21588   4.600   7.142   8.934  0.1833  0.0277 -0.3376
11485PP      PP21589   6.492  12.840   4.750 -0.2468 -0.2474  0.0159
11486PP      PP21590  12.145   5.417   8.087 -0.2649  0.2376  0.0123
11487PP      PP21591  10.162   7.768   9.455 -0.2261 -0.0317 -0.1688
11488PP      PP21592  10.297  14.159   2.699  0.1541  0.1563  0.3028
11489PP      PP21593   0.683   3.425  10.186 -0.0995  0.0623  0.1309
11490PP      PP21594  15.486   4.175   9.517 -0.0672 -0.4879 -0.0345
11491PP      PP21595   9.399   8.092  10.168 -0.1105 -0.3047  0.0522
11492PP      PP21596  12.978   3.193   2.619 -0.0966  0.2095 -0.2836
11493PP      PP21597   3.433   9.349   3.303  0.0436  0.0466  0.0127
11494PP      PP21598   1.307  13.834   1.779 -0.6624  0.1001 -0.3577
11495PP      PP21599  15.313  13.350   1.745 -0.0585  0.1989 -0.0210
11496PP      PP21600   9.321  14.954   3.595 -0.0780 -0.2745 -0.1094
11497PP      PP21601   7.449  11.565   0.629 -0.0124 -0.0983  0.2486
11498PP      PP21602  11.596   7.011   3.180  0.1601 -0.0181 -0.1323
11499PP      PP21603   1.511  14.723  12.704  0.1081  0.0279  0.0488
11500PP      PP21604   8.641   1.775  12.990 -0.2204  0.0649 -0.0970
11501PP      PP21605   2.582   2.796  11.022  0.1377 -0.0153  0.0433
11502PP      PP21606  10.651   6.493   9.854  0.1871  0.1032  0.0964
11503PP      PP21607   6.405   2.624  11.248  0.1234  0.1105  0.1266
11504PP      PP21608   7.023  12.608   2.625  0.4328  0.0559 -0.2991
11505PP      PP21609   8.131   2.684  12.705 -0.1229 -0.0104 -0.2584
11506PP      PP21610   6.433   2.088  13.342  0.0280 -0.0605  0.3122
11507PP      PP21611  11.472  13.934   1.616 -0.2637  0.2302 -0.0524
11508PP      PP21612   6.784   8.486   2.408 -0.1236  0.2493  0.3501
11509PP      PP21613   7.720   1.820  10.068 -0.1862 -0.0803 -0.2538
11510PP      PP21614  11.764   0.926  12.792  0.3818 -0.0553 -0.4034
11511PP      PP21615   7.796   1.888   4.487  0.2251  0.0836  0.2299
11512PP      PP21616   9.440   6.663   1.870  0.1545  0.4633 -0.0995
11513PP      PP21617  15.255  14.696   3.607  0.4340 -0.1792  0.0264
11514PP      PP21618  12.798  13.471   2.453  0.1447  0.1408  0.0686
11515PP      PP21619   9.253   6.420  10.353  0.0858  0.0561 -0.0004
11516PP      PP21620   3.038   1.255  10.695 -0.0583  0.3229 -0.0231
11517PP      PP21621   2.187   5.608   1.760  0.1611  0.0212 -0.0589
11518PP      PP21622  11.422   7.091   7.114  0.0845  0.1287  0.0527
11519PP      PP21623   2.009   1.914   3.539  0.0653 -0.4657 -0.0236
11520PP      PP21624   1.049  15.447   9.189 -0.3139  0.0990 -0.1647
11521PP      PP21625  15.498   6.976   2.508  0.1612 -0.5211 -0.0996
11522PP      PP21626   4.767  11.752   2.559 -0.2758 -0.3597  0.0766
11523PP      PP21627  12.210   4.783   0.746 -0.0310  0.0610  0.2995
11524PP      PP21628  14.336   1.589  13.029  0.0094  0.1079 -0.1970
11525PP      PP21629   7.455   2.272   9.233  0.1478 -0.0222 -0.0629
11526PP      PP21630   7.726   2.311  13.376  0.0384 -0.2881 -0.2572
11527PP      PP21631  11.750   3.944   2.243 -0.0721  0.1319 -0.3924
11528PP      PP21632   9.551   3.048  12.751 -0.0066  0.0248 -0.0818
11529PP      PP21633   0.665  15.404   3.954  0.1031 -0.3039  0.0362
11530PP      PP21634   0.800   9.559   0.744 -0.0003  0.1580  0.0459
11531PP      PP21635  14.960  13.392   4.060  0.1474  0.0216 -0.0934
11532PP      PP21636  12.204   3.285  13.105  0.3138 -0.1128 -0.1558
11533PP      PP21637  12.583   7.507  11.394 -0.2606 -0.0416  0.1089
11534PP      PP21638  15.567  15.667  11.312  0.0440  0.2950 -0.2262
11535PP      PP21639  11.399   7.474   2.427 -0.2208  0.2292 -0.2538
11536PP      PP21640   7.768   5.617   8.591  0.2293 -0.1306 -0.0161
11537PP      PP21641   8.560   1.164   5.391  0.0463  0.4098  0.4116
11538PP      PP21642   5.722  11.147   2.362  0.1979  0.1441  0.2342
11539PP      PP21643  14.082   2.880   4.240  0.0660  0.1102  0.1450
11540PP      PP21644  11.029   3.311   9.487  0.4149  0.3370 -0.0028
11541PP      PP21645   8.738   5.777   9.020 -0.0568 -0.2466  0.1249
11542PP      PP21646  10.331   2.992   1.019  0.1349  0.2465  0.0208
11543PP      PP21647   5.715   3.587   4.534  0.1523 -0.0403 -0.0435
11544PP      PP21648   8.966   3.635   3.400  0.1604 -0.1834 -0.2470
11545PP      PP21649  11.150   1.596   3.046  0.2780  0.2166 -0.0885
11546PP      PP21650  15.632   3.687  10.835 -0.0656 -0.1116  0.0502
11547PP      PP21651   7.213   8.147  10.703 -0.0661  0.3049  0.1060
11548PP      PP21652  15.481  13.165  11.320  0.1966 -0.0201 -0.1921
11549PP      PP21653   9.814  14.554  10.104  0.0800  0.2129  0.1786
11550PP      PP21654   0.186   7.226   9.206  0.0734  0.0412  0.0097
11551PP      PP21655  15.445   4.163  13.251  0.1672  0.0079  0.0162
11552PP      PP21656   0.928   2.124   4.321  0.1925  0.1637 -0.0069
11553PP      PP21657   4.453  12.122  12.411 -0.3041  0.1006 -0.1088
11554PP      PP21658   9.062  12.838   9.022  0.1712  0.3619 -0.0854
11555PP      PP21659  10.320   0.587   1.215  0.2520 -0.2088  0.3519
11556PP      PP21660  11.191  13.268   1.995  0.1626 -0.2992 -0.2876
11557PP      PP21661   4.495   9.746   1.705  0.0170  0.1642  0.0558
11558PP      PP21662   1.978   1.106  10.690 -0.1013 -0.0307  0.0680
11559PP      PP21663  11.647  10.915   0.042 -0.1796  0.1450 -0.1998
11560PP      PP21664  13.741   4.964  12.945  0.0283  0.2679  0.1314
11561PP      PP21665   5.097   6.327   4.156 -0.1666 -0.0291  0.1634
11562PP      PP21666  13.760  10.214  10.775  0.0505  0.4617  0.5215
11563PP      PP21667   7.770   5.960  10.664 -0.0218 -0.1575 -0.0242
11564PP      PP21668   6.722   2.771   0.668 -0.2222  0.0991 -0.3023
11565PP      PP21669   4.721   8.040   4.312 -0.0022  0.0368  0.1547
11566PP      PP21670   4.009  15.304  13.105 -0.1971 -0.1370 -0.0135
11567PP      PP21671   3.387   6.659   2.411 -0.0604  0.1166 -0.0789
11568PP      PP21672  15.789  10.781   4.199  0.0968  0.0278 -0.0405
11569PP      PP21673  10.201  15.241   0.274 -0.1671  0.0335 -0.2068
11570PP      PP21674   9.624   5.090  12.751  0.0766 -0.2290 -0.0298
11571PP      PP21675  15.745  10.080   0.252 -0.2104  0.1470  0.2015
11572PP      PP21676   4.315  14.467  10.009 -0.1645 -0.0958  0.1738
11573PP      PP21677   5.025   7.111  11.944  0.2134  0.0064  0.1783
11574PP      PP21678  15.708  11.715   1.649  0.1179 -0.0945 -0.2619
11575PP      PP21679   5.188   6.836   9.319  0.2131 -0.1991  0.2851
11576PP      PP21680  11.510   9.357   0.635 -0.2259  0.1020 -0.2315
11577PP      PP21681   1.574  10.879   3.327  0.1151  0.2106 -0.0239
11578PP      PP21682  14.034  12.966   1.151 -0.2542  0.1100  0.2599
11579PP      PP21683  15.361  14.560  12.708  0.1916 -0.1098  0.3355
11580PP      PP21684  12.046   8.358   8.623  0.3181  0.0395  0.0443
11581PP      PP21685  12.346  12.492   0.258  0.1742  0.0858 -0.3174
11582PP      PP21686   6.301  12.452   4.453  0.0877 -0.2150 -0.0082
11583PP      PP21687   3.545   8.851   0.131  0.0848 -0.1688 -0.2456
11584PP      PP21688   1.582   8.888   0.600  0.2257 -0.1569 -0.1185
11585PP      PP21689   1.225  13.372  10.803  0.3703 -0.1205 -0.0735
11586PP      PP21690   7.420   3.588   0.658 -0.0097  0.0628  0.4055
11587PP      PP21691  12.017   6.589   0.859 -0.2388 -0.0969  0.1538
11588PP      PP21692   6.720  15.861   9.849  0.0176  0.2750  0.0301
11589PP      PP21693  13.156   9.044   3.253 -0.0710 -0.2038  0.1675
11590PP      PP21694   0.546  14.239   0.478 -0.1486 -0.1581  0.1068
11591PP      PP21695   8.969   4.640   2.337  0.1295 -0.0540  0.2353
11592PP      PP21696   6.564   0.294   2.039 -0.1275 -0.1409  0.2272
11593PP      PP21697   4.268   4.730  10.441 -0.4556 -0.4851 -0.2003
11594PP      PP21698  15.816  11.500   9.533  0.0749 -0.4548  0.1883
11595PP      PP21699   8.442  12.063  11.964 -0.0482 -0.1337 -0.2809
11596PP      PP21700   4.661   6.207   8.754 -0.1282 -0.2282  0.1721
11597PP      PP21701   4.384   9.643  10.025  0.0368 -0.1064  0.0788
11598PP      PP21702   7.033   1.097   4.450  0.0114  0.2264  0.2383
11599PP      PP21703   4.177   8.171   4.360 -0.2741 -0.1123 -0.0126
11600PP      PP21704   9.970   1.413   2.851 -0.0774 -0.1491 -0.0780
11601PP      PP21705   3.641   3.439   0.413 -0.1170  0.0365  0.3636
11602PP      PP21706   6.694  12.866   1.235  0.2276  0.1966 -0.1674
11603PP      PP21707   1.480  12.286  10.774 -0.3026  0.2053 -0.3351
11604PP      PP21708  14.177  12.616  12.159 -0.0236 -0.0268 -0.1283
11605PP      PP21709  10.439  15.567   2.140  0.0044  0.0632 -0.4060
11606PP      PP21710   0.024   2.138   3.392  0.1289 -0.2044  0.0791
11607PP      PP21711   0.081   8.406   8.671  0.4574  0.0827 -0.2016
11608PP      PP21712   5.890  11.370   3.676 -0.0092 -0.2226 -0.5964
11609PP      PP21713   4.547   1.995  11.373 -0.0916 -0.0186 -0.1130
11610PP      PP21714   7.636   1.143   0.353 -0.1693  0.0526 -0.3114
11611PP      PP21715   0.819   3.521   1.303 -0.1588  0.0730 -0.1361
11612PP      PP21716  10.339  14.342   1.440  0.0126  0.1816  0.1755
11613PP      PP21717   8.815   7.139   3.545 -0.2477 -0.1294 -0.1705
11614PP      PP21718   4.647   9.616   0.440  0.1364 -0.1832 -0.1717
11615PP      PP21719   5.498   6.655   3.026  0.2934  0.0909 -0.0659
11616PP      PP21720   5.809  11.511   9.457  0.2911 -0.0990  0.0647
11617PP      PP21721  14.115   0.668   9.111  0.1746  0.1183  0.0977
11618PP      PP21722   8.400   3.347  11.834  0.1161  0.2044  0.1039
11619PP      PP21723   8.613   2.225   9.945  0.0212  0.0034 -0.0664
11620PP      PP21724  14.842  13.004   9.855  0.0641  0.1284  0.3429
11621PP      PP21725   8.864  10.007   4.315 -0.3879 -0.1286  0.2829
11622PP      PP21726   7.845   2.079   0.745  0.1171 -0.4092  0.0607
11623PP      PP21727   1.971  12.327  11.811 -0.3703  0.1276  0.0808
11624PP      PP21728   8.500   9.015   1.902  0.1876  0.2534 -0.0744
11625PP      PP21729   7.910  12.114   9.649 -0.2763 -0.2781  0.0486
11626PP      PP21730   1.413   6.853   3.208  0.0987  0.0904  0.3282
11627PP      PP21731  14.749   4.705   9.714  0.1111 -0.1342 -0.0691
11628PP      PP21732   7.139   1.603   0.385  0.0066 -0.3413  0.2585
11629PP      PP21733   5.412  10.069   3.947  0.0237 -0.1342  0.2731
11630PP      PP21734   7.776  12.241  13.488 -0.0296  0.0874  0.2152
11631PP      PP21735  13.575  15.086   0.371 -0.2894 -0.0905 -0.0428
11632PP      PP21736  10.701   9.858  13.483  0.0355 -0.0748  0.1547
11633PP      PP21737   1.391   9.708   2.994  0.2924  0.3848 -0.2856
11634PP      PP21738   5.829  15.223   9.587 -0.0561 -0.2943  0.3494
11635PP      PP21739  13.833   9.578  11.986 -0.0502 -0.3510  0.0516
11636PP      PP21740  11.137   1.529   4.279  0.0304  0.2079  0.1794
11637PP      PP21741   2.977   7.251  11.760  0.0545 -0.3454 -0.0877
11638PP      PP21742   4.969   7.129   0.016  0.1542 -0.0031  0.1795
11639PP      PP21743  13.853   8.364   2.825  0.2081 -0.3088  0.2140
11640PP      PP21744   3.967   4.110   0.463 -0.3890  0.1328 -0.0093
11641PP      PP21745   2.705   9.044   2.720 -0.1239  0.0792 -0.0467
11642PP      PP21746  13.517   0.984   2.917 -0.3622 -0.0896 -0.0527
11643PP      PP21747   1.733   5.761   2.241  0.1204  0.0427 -0.0444
11644PP      PP21748   0.733   3.529  10.670 -0.0110  0.0967 -0.2070
11645PP      PP21749   5.092   7.543   8.217 -0.0598 -0.2816  0.0994
11646PP      PP21750  13.296   2.300  12.803 -0.1210 -0.0844 -0.0904
11647PP      PP21751   9.310   1.166   4.015  0.0449  0.2013 -0.0760
11648PP      PP21752   7.526   3.512  11.976 -0.2214 -0.0415  0.1515
11649PP      PP21753  12.024   6.706   1.332  0.3273  0.2240 -0.2285
11650PP      PP21754  14.182   3.412   0.351 -0.1126 -0.1149  0.1050
11651PP      PP21755   6.897   0.601   3.984 -0.1201 -0.4285 -0.5390
11652PP      PP21756   7.550  11.790   4.481 -0.0655 -0.0681 -0.0504
11653PP      PP21757   6.016   9.690  13.133 -0.2489  0.1021  0.1363
11654PP      PP21758   1.658   6.539  10.760 -0.1259  0.2610  0.6074
11655PP      PP21759   1.070   6.435   1.789 -0.1183  0.0873  0.0344
11656PP      PP21760  11.338   6.454   9.018 -0.1100 -0.1111  0.3398
11657PP      PP21761   1.722   6.979   9.084 -0.0263  0.1014  0.0538
11658PP      PP21762  14.322   9.518  10.363  0.0574  0.1843 -0.0066
11659PP      PP21763   1.826   7.773  12.023 -0.1007  0.2952 -0.0024
11660PP      PP21764   0.859  12.662   3.617  0.0054 -0.1484  0.1030
11661PP      PP21765  12.368   4.594  11.141 -0.0200 -0.1273  0.1862
11662PP      PP21766   2.808   0.042   2.644  0.4357  0.3439 -0.1524
11663PP      PP21767   6.463  12.456   1.392  0.0233 -0.1654  0.2757
11664PP      PP21768   1.850  10.876  10.550 -0.1590  0.3140 -0.3828
11665PP      PP21769  13.078   5.052   7.594  0.1272  0.2524 -0.0269
11666PP      PP21770  12.109   5.462   1.432 -0.0334  0.0955 -0.0973
11667PP      PP21771  11.434   1.188   3.335  0.0032 -0.2456 -0.1820
11668PP      PP21772  10.777  14.259   4.645  0.1047 -0.0891  0.4443
11669PP      PP21773   3.976   4.580  11.795 -0.2444  0.2126 -0.2001
11670PP      PP21774   5.833   0.955   4.665 -0.1630  0.0938 -0.2994
11671PP      PP21775  11.634   8.990  10.412  0.2989  0.1448 -0.2234
11672PP      PP21776  13.417  15.440   9.420 -0.0132 -0.2603  0.2287
11673PP      PP21777   1.477   0.497   2.252 -0.1821 -0.1109  0.4949
11674PP      PP21778   5.935   9.419   1.007 -0.0692 -0.2499 -0.0953
11675PP      PP21779  15.643   4.581   2.633  0.0396 -0.1144 -0.1934
11676PP      PP21780  13.058   8.278  10.397  0.0201 -0.0324 -0.0663
11677PP      PP21781  12.679  11.720  11.312 -0.0052 -0.3785  0.1974
11678PP      PP21782  11.264   9.943  11.328 -0.0432 -0.0175  0.2026
11679PP      PP21783   1.214  14.256  12.590 -0.3349  0.0142  0.1196
11680PP      PP21784   9.395  15.745  13.470  0.1310  0.0466 -0.2186
11681PP      PP21785   8.589   9.621   3.027 -0.1705  0.1342 -0.0874
11682PP      PP21786   7.768  13.135   9.761  0.1467  0.1084  0.1243
11683PP      PP21787  11.253   8.052   2.911  0.1951 -0.2801  0.0958
11684PP      PP21788  10.690  11.079   2.317 -0.0636  0.3319  0.0691
11685PP      PP21789   8.579   3.113   4.297 -0.1973 -0.1578 -0.1818
11686PP      PP21790   2.301   6.443   4.687  0.0151 -0.1533 -0.0688
11687PP      PP21791   0.850   5.140  13.123  0.0157  0.1311  0.0142
11688PP      PP21792  12.095   0.137   1.037 -0.3806  0.0344  0.0445
11689PP      PP21793   4.706   0.988  11.656 -0.3186  0.3053 -0.0072
11690PP      PP21794   0.502   5.132   8.671 -0.1291 -0.0901 -0.3729
11691PP      PP21795  14.277   1.746   1.123 -0.3504  0.2020  0.1302
11692PP      PP21796   8.965  14.272  12.691 -0.0003 -0.4895 -0.1929
11693PP      PP21797  11.815   3.166   2.404  0.0431  0.0294  0.2187
11694PP      PP21798  15.791  10.215  11.850 -0.0734  0.3300  0.0408
11695PP      PP21799   6.322   7.327   8.338 -0.1340 -0.1256  0.1169
11696PP      PP21800  12.644  11.353  10.872 -0.0163  0.0828  0.0241
11697PP      PP21801   7.388  10.096   1.529  0.2338 -0.0372 -0.0483
11698PP      PP21802   6.511   4.420   3.129  0.0049 -0.0234 -0.1393
11699PP      PP21803   0.070  12.324   0.314  0.0959  0.0845  0.1677
11700PP      PP21804   5.864   5.703  10.665  0.0347 -0.4651  0.1393
11701PP      PP21805   9.289   8.209  11.485 -0.1747  0.2192 -0.1408
11702PP      PP21806   9.152  12.027   2.515 -0.3951  0.2277 -0.2928
11703PP      PP21807   5.279   8.823   2.092 -0.0491 -0.2234 -0.0919
11704PP      PP21808   4.846   9.733  12.410 -0.1257  0.2776  0.1839
11705PP      PP21809  15.830   5.866   8.531 -0.2913 -0.0693  0.0077
11706PP      PP21810  10.556  14.548   9.247 -0.0526  0.1563  0.1605
11707PP      PP21811  14.539   7.855   0.338 -0.2483  0.0064 -0.0461
11708PP      PP21812   5.536  14.358   3.709 -0.3368 -0.0731 -0.3507
11709PP      PP21813  12.509   5.444  11.414  0.0832  0.1138  0.1532
11710PP      PP21814   1.715   8.228   9.727 -0.2643  0.2412 -0.0567
11711PP      PP21815  15.322  12.739   4.106 -0.0179 -0.1950 -0.1926
11712PP      PP21816   1.026  13.384  13.152  0.1213 -0.2315 -0.0108
11713PP      PP21817  13.782  13.684  11.870 -0.0345 -0.0893  0.0124
11714PP      PP21818  13.088  15.283  13.200 -0.0160 -0.0266 -0.0029
11715PP      PP21819   8.867  13.462   0.056  0.4321  0.0274  0.3117
11716PP      PP21820   4.841  13.641   0.997 -0.3089 -0.0442  0.1757
11717PP      PP21821   0.894   7.609   9.606  0.2726 -0.3499 -0.0573
11718PP      PP21822  15.211  15.608  10.553 -0.1404 -0.0976 -0.1871
11719PP      PP21823  11.982   2.573   1.859 -0.0372 -0.0362  0.1672
11720PP      PP21824   7.091   2.997   9.909 -0.0319  0.0413  0.0121
11721PP      PP21825   8.458  15.848   0.022  0.2960 -0.3985  0.0036
11722PP      PP21826  13.400  12.995   2.036 -0.0535 -0.2730 -0.2226
11723PP      PP21827  11.906   2.249   3.677 -0.0844  0.2593  0.1585
11724PP      PP21828   5.255  12.974  11.244 -0.1927  0.3873  0.0332
11725PP      PP21829   9.356   9.050  12.075  0.1478 -0.3409 -0.1448
11726PP      PP21830   2.256  12.334   0.849 -0.1002  0.0547 -0.1423
11727PP      PP21831   9.374   0.784   4.381 -0.0820 -0.1303  0.1824
11728PP      PP21832   8.416   5.295  11.859  0.2372 -0.2906  0.1267
11729PP      PP21833   8.653   2.681   2.604 -0.0690 -0.2557  0.0426
11730PP      PP21834   6.372   8.304  11.559  0.2575 -0.1641  0.0943
11731PP      PP21835   4.358   9.905  10.476 -0.1921  0.1404 -0.1795
11732PP      PP21836   0.802  14.082   2.599 -0.3454  0.5057 -0.2151
11733PP      PP21837   3.622   8.838  12.582 -0.0126  0.0156 -0.0915
11734PP      PP21838   0.031   3.724   3.121 -0.0765  0.0836  0.1973
11735PP      PP21839   7.936  12.809  11.555 -0.1565 -0.1099  0.0865
11736PP      PP21840  15.658  11.906  12.585  0.2081 -0.1884  0.3768
11737PP      PP21841   7.575   8.576   2.866 -0.0125 -0.1826  0.1599
11738PP      PP21842   7.079   1.651   4.298 -0.1041 -0.0366 -0.0015
11739PP      PP21843   5.821   7.947   3.351  0.0414  0.1197 -0.1498
11740PP      PP21844  11.377  15.216   0.287  0.3073  0.0341  0.0628
11741PP      PP21845   1.247  11.480  12.562  0.2438 -0.0034 -0.0607
11742PP      PP21846   5.428  13.953  11.040  0.2906  0.0342 -0.1624
11743PP      PP21847  10.309  13.326   3.291  0.4120  0.2859 -0.2554
11744PP      PP21848   3.889   0.796   2.856 -0.0923  0.0541  0.1041
11745PP      PP21849   1.796   7.176   1.558  0.0966 -0.0016 -0.0812
11746PP      PP21850  12.838   6.815   9.604  0.1680 -0.0177 -0.1013
11747PP      PP21851   4.091  12.050   2.061  0.2511  0.3060 -0.1613
11748PP      PP21852  10.592  11.713  12.413  0.0241 -0.0470  0.1841
11749PP      PP21853   9.920   4.201  10.177  0.1594 -0.0243  0.2118
11750PP      PP21854   2.591   7.380   3.960  0.0727 -0.0798  0.2755
11751PP      PP21855   3.899   4.986  12.441 -0.1009 -0.0899 -0.1923
11752PP      PP21856   7.907   2.100   9.037 -0.0988  0.0927  0.1169
11753PP      PP21857   2.436  12.944  11.794 -0.2748 -0.0448 -0.1643
11754PP      PP21858   7.670   6.204  13.296  0.1687 -0.0802 -0.1021
11755PP      PP21859   7.691   4.341   0.401  0.3825 -0.4203 -0.1703
11756PP      PP21860  10.509   4.479   1.211 -0.2271  0.1524 -0.1686
11757PP      PP21861   4.502   7.047  12.025  0.2801  0.3650  0.1456
11758PP      PP21862   0.960   0.729   0.918  0.2137  0.2243 -0.0233
11759PP      PP21863   7.705   5.901   3.869 -0.0450  0.0592 -0.0464
11760PP      PP21864  13.572   7.292   1.757 -0.0223 -0.2544 -0.0457
11761PP      PP21865  14.120  13.214  12.310  0.0911  0.2281 -0.0836
11762PP      PP21866  11.025   6.210   9.720  0.1425 -0.1218  0.3402
11763PP      PP21867  13.059   1.999   9.638  0.0470 -0.3180  0.2560
11764PP      PP21868   4.540  12.820   2.868  0.0524  0.2281 -0.1446
11765PP      PP21869   3.605   7.198   2.557  0.3644 -0.2821  0.1806
11766PP      PP21870   0.660  15.176   2.959  0.0099  0.0422 -0.0006
11767PP      PP21871   3.308   0.389  10.838  0.1496 -0.2558 -0.2063
11768PP      PP21872   6.368   4.835  12.351 -0.0478 -0.2879 -0.3434
11769PP      PP21873  11.202   7.369   3.342 -0.2469  0.0740  0.3778
11770PP      PP21874   1.995  11.938  12.378  0.2163 -0.2822  0.1750
11771PP      PP21875   8.060   5.040   2.221 -0.4286 -0.0336  0.2639
11772PP      PP21876   7.718  14.366  11.006 -0.3963  0.0735 -0.0071
11773PP      PP21877   7.872   9.340   0.622  0.0096 -0.0636  0.2457
11774PP      PP21878   5.363   7.102   2.895  0.1055  0.0598  0.1128
11775PP      PP21879   1.271  15.870   1.500 -0.0737 -0.0724  0.0409
11776PP      PP21880  14.817   5.968   0.280  0.0853 -0.0521 -0.1911
11777PP      PP21881   1.878  13.622   2.679  0.2333 -0.0166 -0.0566
11778PP      PP21882  11.493   7.132   9.783  0.1620  0.0052  0.0281
11779PP      PP21883   5.149  13.632   9.697 -0.0951 -0.0064  0.1017
11780PP      PP21884   3.408  14.863  11.242  0.1368 -0.0135  0.0257
11781PP      PP21885  12.839  11.848   0.463 -0.1676  0.0350  0.0658
11782PP      PP21886  12.003   1.778   3.360  0.0715  0.2699  0.0754
11783PP      PP21887   6.255   1.483  11.158  0.2144 -0.0889 -0.1780
11784PP      PP21888  11.229   1.349  12.330  0.1582  0.2762 -0.2612
11785PP      PP21889   2.566  11.263   1.113 -0.1702  0.2170 -0.1179
11786PP      PP21890   4.279  14.213   4.296  0.3333  0.1141 -0.0805
11787PP      PP21891   1.538  11.736   0.995  0.0540  0.0278  0.0638
11788PP      PP21892   0.163  10.245   3.154  0.0991  0.0398  0.1142
11789PP      PP21893  11.614   8.514   8.373 -0.4785 -0.1151 -0.3395
11790PP      PP21894  13.826  10.984   0.582  0.1164  0.3524 -0.2555
11791PP      PP21895   4.126   7.872  12.475 -0.1001 -0.1639  0.2198
11792PP      PP21896   3.799   1.818   0.723 -0.1691  0.1439 -0.0294
11793PP      PP21897   0.535  14.025   1.415  0.2548  0.0711  0.3542
11794PP      PP21898  12.287  15.547   3.315  0.1543 -0.0698 -0.0306
11795PP      PP21899  14.808   3.355  10.570 -0.0350  0.0063 -0.0483
11796PP      PP21900   6.310   5.184   4.207 -0.0998 -0.2843  0.0741
11797PP      PP21901  10.138   4.023   9.695 -0.0760  0.0787  0.1512
11798PP      PP21902   3.658  11.051  10.095 -0.1101  0.1743 -0.1972
11799PP      PP21903   2.511   9.986  11.522 -0.2761 -0.0843  0.0526
11800PP      PP21904   1.205   7.191  11.466  0.1214  0.2841 -0.2231
11801PP      PP21905   1.233   7.477   2.780 -0.1137 -0.2143 -0.2367
11802PP      PP21906  13.228   7.671   2.688  0.2609  0.0775 -0.0012
11803PP      PP21907  11.611   9.631  11.582  0.2858  0.2508  0.0024
11804PP      PP21908  15.652   5.672   2.539 -0.0269 -0.2009 -0.1022
11805PP      PP21909   9.848   6.211   2.445  0.4820  0.2050 -0.0613
11806PP      PP21910   5.184   4.508  12.173  0.2418 -0.1487  0.0480
11807PP      PP21911   7.455   0.696   1.026  0.0262 -0.0633 -0.3597
11808PP      PP21912   6.282  15.544   1.620  0.0636 -0.0093  0.2253
11809PP      PP21913   4.903  15.080   2.877 -0.3395  0.1680  0.2241
11810PP      PP21914  13.732   1.156  11.632  0.1469  0.4446 -0.2030
11811PP      PP21915   5.080  13.996  10.162  0.1796  0.0671  0.2832
11812PP      PP21916   2.066   6.910  13.227  0.0141  0.0392  0.0610
11813PP      PP21917   9.494  10.166  10.695  0.0449  0.2157  0.0769
11814PP      PP21918  15.113  12.684  12.207  0.1673  0.0555 -0.0028
11815PP      PP21919   1.250   8.743   2.889  0.2774  0.0748  0.2386
11816PP      PP21920   5.849   8.322   0.176  0.0562 -0.0262 -0.0222
11817PP      PP21921   1.518   4.454   9.871  0.1092  0.0635 -0.0472
11818PP      PP21922   3.241   0.406   9.432  0.2414 -0.1123  0.1953
11819PP      PP21923  14.757  12.735   4.380 -0.1298  0.2770 -0.0175
11820PP      PP21924  15.072   7.471  11.554  0.0296 -0.1580 -0.1527
11821PP      PP21925   3.779   7.959   3.145  0.0251 -0.6137  0.0866
11822PP      PP21926   3.542   3.979   0.241 -0.1822  0.1269  0.0647
11823PP      PP21927  11.465   9.845   0.601  0.0992  0.0503  0.3949
11824PP      PP21928   1.191   4.216   9.538 -0.0986  0.2566 -0.1776
11825PP      PP21929   4.115   2.115  10.441 -0.0688 -0.1988 -0.0585
11826PP      PP21930   8.312   7.555  12.461 -0.3087 -0.0780 -0.0087
11827PP      PP21931   3.404  12.708   3.110 -0.1219 -0.2579 -0.0054
11828PP      PP21932  13.820  13.863  13.425 -0.2296  0.3014 -0.0959
11829PP      PP21933   5.710  13.259   0.105  0.0502 -0.1831 -0.4227
11830PP      PP21934   9.486  13.618   1.293  0.2306  0.0180 -0.0187
11831PP      PP21935  13.642   6.832   3.685 -0.0953  0.0369 -0.1492
11832PP      PP21936   6.239   5.051   8.706 -0.4408 -0.0127 -0.4102
11833PP      PP21937   2.882   3.975   1.349  0.1475 -0.0519  0.4711
11834PP      PP21938   7.089  11.135   1.547  0.1437 -0.0599  0.1377
11835PP      PP21939  15.770   8.188   2.773 -0.2268 -0.0261 -0.0154
11836PP      PP21940  15.330  15.013   3.230 -0.2204 -0.0957  0.0328
11837PP      PP21941  13.142  12.784  13.294  0.0392  0.0373  0.1474
11838PP      PP21942  12.732   5.146  11.727  0.0251 -0.1313  0.2503
11839PP      PP21943   1.299  14.044   9.635  0.1515  0.0374 -0.2623
11840PP      PP21944  14.186   2.901   9.450  0.1156  0.0600  0.0578
11841PP      PP21945   0.066  10.047   2.209  0.2943 -0.0890 -0.1789
11842PP      PP21946   3.692   3.388   2.617 -0.0187 -0.2284  0.0880
11843PP      PP21947   2.526  10.324   0.461  0.1715  0.0136 -0.0953
11844PP      PP21948   8.178   2.131   3.607  0.0033  0.0277  0.2108
11845PP      PP21949   1.131   5.095   9.216  0.3016  0.0450  0.1658
11846PP      PP21950   3.376   9.540  10.827 -0.0300 -0.1610  0.1731
11847PP      PP21951  10.858  14.873   9.603 -0.1199  0.0095 -0.0475
11848PP      PP21952   2.761   7.833   9.609  0.1564 -0.1897  0.2691
11849PP      PP21953   5.911  14.985   0.152 -0.1256 -0.0648  0.0249
11850PP      PP21954   8.275  11.589   4.159 -0.1539  0.1543  0.2331
11851PP      PP21955   3.734   5.048   4.397  0.0357  0.3093 -0.3675
11852PP      PP21956   6.199  14.197   2.763 -0.3851  0.0072 -0.0282
11853PP      PP21957  13.947   0.059   3.883 -0.0686 -0.0293  0.3972
11854PP      PP21958   9.285   3.075  10.803  0.3398 -0.2156  0.2634
11855PP      PP21959   9.957  14.736   1.834  0.1448 -0.0105  0.1973
11856PP      PP21960   1.607   2.892  10.421  0.3268  0.0263  0.3196
11857PP      PP21961   0.454  10.278  11.953 -0.1038  0.0675  0.1680
11858PP      PP21962   1.267   5.652  10.112  0.0434 -0.1439  0.2374
11859PP      PP21963   6.417   0.145  12.242 -0.1915 -0.0889  0.3503
11860PP      PP21964  14.942  13.082   0.286  0.0748 -0.2214  0.0673
11861PP      PP21965   9.377   1.224   1.537 -0.1894 -0.0647  0.0351
11862PP      PP21966   0.228  13.738   9.496 -0.1156  0.3532  0.1645
11863PP      PP21967   9.852  12.062  11.900 -0.3975 -0.0489 -0.3117
11864PP      PP21968  15.531  14.087  11.313 -0.0662  0.0385  0.2295
11865PP      PP21969   2.350   9.680   3.263 -0.0384  0.3517 -0.1989
11866PP      PP21970   2.576   7.223   0.925  0.0020  0.2747 -0.3052
11867PP      PP21971   5.344   5.634   0.988  0.1610  0.1941 -0.0067
11868PP      PP21972   5.281   6.271  11.289  0.0121  0.1770 -0.2333
11869PP      PP21973   5.821   3.057   3.758 -0.0691 -0.0794  0.0447
11870PP      PP21974   4.686   1.884   0.267 -0.5781 -0.3137  0.0341
11871PP      PP21975   7.170   2.112   0.840 -0.0270  0.3374 -0.0374
11872PP      PP21976   8.673   9.417  11.946  0.1302 -0.0803  0.2884
11873PP      PP21977  12.859  13.749   1.809 -0.5673 -0.0233 -0.0654
11874PP      PP21978   9.714   1.823  13.221  0.1815 -0.0296 -0.2580
11875PP      PP21979   2.510  14.793   3.096 -0.1888 -0.5420 -0.0978
11876PP      PP21980   0.125   5.253  12.307 -0.0946  0.1545  0.0209
11877PP      PP21981   8.742   5.747   3.743  0.0909 -0.1188  0.1124
11878PP      PP21982   1.155   4.094  11.149  0.1422  0.0705  0.1197
11879PP      PP21983   8.403   8.732  11.214  0.1676 -0.0498  0.2036
11880PP      PP21984  10.908   2.538  12.094  0.0501 -0.0566 -0.0520
11881PP      PP21985   1.096  13.206  12.668  0.1475 -0.1807  0.0178
11882PP      PP21986  11.704  12.580  11.087 -0.0559 -0.1404  0.3080
11883PP      PP21987   7.264   8.680  10.543  0.5014 -0.2571  0.1159
11884PP      PP21988  12.867  15.489   9.472 -0.0502 -0.3262  0.1610
11885PP      PP21989   4.752  13.331   3.434 -0.1539 -0.0265 -0.0041
11886PP      PP21990   9.926   9.548   1.723  0.0830  0.3841 -0.1103
11887PP      PP21991   0.863  14.424   9.816  0.0277 -0.3063 -0.0961
11888PP      PP21992  14.320   6.400   8.129 -0.0757 -0.0069 -0.0576
11889PP      PP21993   3.497   5.348   2.034  0.1240  0.2298  0.1696
11890PP      PP21994   9.638   3.898   9.721  0.2920 -0.2596 -0.1892
11891PP      PP21995   1.835   0.130   3.511 -0.2217 -0.0427  0.0720
11892PP      PP21996   0.430   2.824  12.162 -0.1825 -0.0999 -0.3325
11893PP      PP21997   7.964   2.707   1.240  0.0907 -0.0566 -0.0526
11894PP      PP21998   4.009   3.180   3.858 -0.3479  0.1480 -0.0091
11895PP      PP21999   1.561  13.386  12.481 -0.1559 -0.0475 -0.1138
11896PP      PP22000   4.088   2.662   1.489 -0.1788 -0.1068  0.1631
11897PP      PP22001  15.072   3.918   2.403  0.0829  0.1662 -0.0630
11898PP      PP22002   5.063   6.163  13.537  0.0379 -0.4326 -0.0941
11899PP      PP22003   7.886   9.831   0.499  0.1102 -0.0560  0.3145
11900PP      PP22004  10.028  15.290  12.676 -0.2443  0.3484  0.2381
11901PP      PP22005  11.184  10.551  10.008 -0.0017  0.1345  0.1395
11902PP      PP22006  10.868   5.232   0.668  0.0212 -0.3686 -0.2316
11903PP      PP22007   0.136   1.903  13.387 -0.2871  0.0371  0.1690
11904PP      PP22008   9.103   3.493  11.354 -0.2125  0.2552 -0.2525
11905PP      PP22009   2.642   6.913  11.162  0.0482 -0.1437 -0.3775
11906PP      PP22010   2.589   1.981  11.566  0.0927 -0.3401  0.2718
11907PP      PP22011   3.318  12.092  12.660 -0.1139 -0.0859  0.3397
11908PP      PP22012   5.093   8.116   2.578 -0.1242  0.3299  0.0959
11909PP      PP22013   0.148  14.154   2.700  0.0867 -0.1452  0.0351
11910PP      PP22014   2.988  13.342   1.984 -0.1725 -0.0338 -0.1553
11911PP      PP22015  10.264   6.127  13.340 -0.0667  0.2723  0.1753
11912PP      PP22016   5.114   1.303   3.395 -0.2468 -0.0982 -0.1305
11913PP      PP22017   4.152  13.166  11.977  0.0126  0.3640 -0.2845
11914PP      PP22018   1.277   5.475  11.482  0.0427 -0.0305  0.0831
11915PP      PP22019   0.609   2.904  10.920 -0.3111 -0.1183  0.0885
11916PP      PP22020   1.539  13.355   0.082  0.0110  0.1887 -0.0865
11917PP      PP22021  13.903   4.587   1.967  0.0475 -0.3264 -0.1067
11918PP      PP22022   7.641  12.941  12.563  0.3660 -0.0085 -0.0284
11919PP      PP22023   1.211  11.326  10.516 -0.2209 -0.1391 -0.0066
11920PP      PP22024   4.919  14.939   9.377 -0.0642 -0.1035  0.0723
11921PP      PP22025   6.242  13.354  12.934  0.1301 -0.1978  0.0086
11922PP      PP22026  12.939   2.976  13.229  0.0730 -0.0540  0.1042
11923PP      PP22027   6.195  10.677  13.498 -0.2459  0.1057  0.1134
11924PP      PP22028   8.307  15.822   0.870 -0.0539 -0.1188  0.2695
11925PP      PP22029   3.369  12.649   2.344  0.1361 -0.2652 -0.0157
11926PP      PP22030  12.631  14.907  12.341 -0.0427  0.1751 -0.1440
11927PP      PP22031   1.175  10.236  12.411 -0.0006  0.1084  0.1895
11928PP      PP22032  12.023   6.892   2.747 -0.2023  0.0095 -0.1434
11929PP      PP22033   2.350  11.741   1.115 -0.0076  0.1138  0.1777
11930PP      PP22034  14.421   7.720   0.848  0.2550  0.1196 -0.2185
11931PP      PP22035  14.544  15.665   3.767  0.1101  0.2890 -0.0610
11932PP      PP22036   9.124  12.678  10.848  0.0890  0.2915 -0.0282
11933PP      PP22037  11.593  14.330   9.603 -0.1150 -0.0471  0.0989
11934PP      PP22038   2.057  12.632  10.197 -0.0198 -0.0871 -0.1691
11935PP      PP22039   5.603   2.193  10.455  0.0759  0.0911 -0.0470
11936PP      PP22040   5.378   1.684   1.604 -0.0571  0.1753 -0.1904
11937PP      PP22041   1.253   7.840   1.451  0.1665  0.0540 -0.0110
11938PP      PP22042  13.123   3.674   2.281 -0.3168  0.1234 -0.0488
11939PP      PP22043   0.256   1.870  12.910 -0.1395  0.0008 -0.3637
11940PP      PP22044   6.007  10.727   8.484  0.0909  0.3678 -0.0481
11941PP      PP22045   0.253   5.930   9.416 -0.0077 -0.1495 -0.0294
11942PP      PP22046   1.794  15.244  12.555 -0.2644 -0.4508  0.0699
11943PP      PP22047  14.150   8.456  12.536 -0.1460  0.0674 -0.0057
11944PP      PP22048   6.362   8.595   9.384 -0.3442 -0.0974  0.0481
11945PP      PP22049  13.235  12.491  12.359  0.0516 -0.2116  0.2574
11946PP      PP22050  12.559   1.469  10.616  0.0667 -0.0364 -0.1753
11947PP      PP22051   8.478   6.777   0.428  0.2932 -0.0276  0.0173
11948PP      PP22052   1.348  13.022   0.366  0.1463 -0.1900  0.0941
11949PP      PP22053   0.022   1.731   0.461 -0.3180 -0.0492 -0.1564
11950PP      PP22054   0.584   1.762   0.387  0.1033  0.0956 -0.2062
11951PP      PP22055   9.773   4.644  10.723 -0.2460  0.1619  0.0907
11952PP      PP22056  13.124   9.838   9.861 -0.0694 -0.0614 -0.2199
11953PP      PP22057   9.336   4.144  12.952 -0.3490 -0.3408  0.1660
11954PP      PP22058  10.930   4.533  10.815 -0.1493  0.2213 -0.0602
11955PP      PP22059   3.342   4.746  11.361 -0.3234  0.0043  0.0719
11956PP      PP22060  10.136   4.163  13.517 -0.0425  0.3387 -0.3752
11957PP      PP22061   2.942   2.645   9.535 -0.0146  0.1572  0.3804
11958PP      PP22062  14.864   1.060   3.683 -0.0825  0.2260 -0.0311
11959PP      PP22063   8.748   5.893  11.135 -0.0930 -0.0402 -0.4292
11960PP      PP22064   0.249  13.895   0.141  0.1572 -0.0487 -0.0785
11961PP      PP22065   1.415   9.776  13.133 -0.3099  0.2854  0.2791
11962PP      PP22066   2.589  13.227  10.721 -0.0198  0.1369 -0.2650
11963PP      PP22067  14.621   9.892  13.466  0.1249  0.0075 -0.0832
11964PP      PP22068   0.319   0.586   2.402 -0.4174 -0.2242  0.1824
11965PP      PP22069  10.651  12.465   0.196 -0.2616 -0.0496  0.2024
11966PP      PP22070  11.184   8.739  13.433  0.0743 -0.0686  0.0113
11967PP      PP22071   5.858  13.676   4.582  0.1359  0.0041 -0.2868
11968PP      PP22072   4.696   5.963  10.001  0.1950  0.0014  0.1763
11969PP      PP22073  13.499   4.241   2.059  0.2653  0.0869 -0.2093
11970PP      PP22074   1.732  14.185   1.917 -0.1487 -0.0784  0.1181
11971PP      PP22075   7.583  13.308   0.106 -0.2004 -0.0588  0.5517
11972PP      PP22076  13.452  11.609   1.191 -0.0129 -0.0560 -0.3617
11973PP      PP22077  12.039  11.057   9.132  0.0708  0.1072  0.0514
11974PP      PP22078   2.583   5.110   2.573  0.0035 -0.0661  0.2963
11975PP      PP22079  13.832  12.359   2.540  0.2260  0.0008  0.0860
11976PP      PP22080   9.687   0.335   0.043  0.1971  0.0100 -0.1356
11977PP      PP22081   2.881   8.296  10.386  0.0334  0.1799  0.1171
11978PP      PP22082   9.483   0.624  12.742  0.0117 -0.0703 -0.3495
11979PP      PP22083  10.117  11.878  12.300 -0.0418 -0.2123  0.0433
11980PP      PP22084  15.636  10.638   2.826  0.0947 -0.5191 -0.2242
11981PP      PP22085  14.266  13.570   0.797 -0.0279 -0.2514 -0.1203
11982PP      PP22086  11.483   4.076   0.018 -0.1514 -0.2588  0.4178
11983PP      PP22087  13.529   6.105   2.099 -0.0278 -0.0128 -0.1260
11984PP      PP22088   3.790   0.443   9.546  0.1241 -0.1810  0.1905
11985PP      PP22089   8.829  11.141  10.910 -0.1186 -0.0243  0.2668
11986PP      PP22090   1.301  14.350  11.159  0.3526  0.0574 -0.2773
11987PP      PP22091   5.017   4.290  10.589  0.0266  0.1135 -0.2498
11988PP      PP22092  12.941  13.508   4.158  0.2798  0.1745 -0.0171
11989PP      PP22093   2.899   5.448   1.035  0.0046 -0.1662  0.2703
11990PP      PP22094   7.702  12.333   1.950 -0.1813  0.2085  0.0111
11991PP      PP22095   9.158  14.506  11.890 -0.0538 -0.1767 -0.0083
11992PP      PP22096  11.533  11.236   9.163 -0.0199 -0.2209 -0.0900
11993PP      PP22097   9.852   4.191   0.995 -0.0998 -0.0658  0.1294
11994PP      PP22098   8.544  10.693   2.752 -0.1619  0.0227 -0.0182
11995PP      PP22099  10.278  11.398   4.651 -0.0001 -0.1070 -0.0197
11996PP      PP22100   5.266   3.718  12.619  0.0228  0.0959  0.2008
11997PP      PP22101   6.306   4.791   2.433  0.2658 -0.3959  0.0621
11998PP      PP22102   9.773   1.745   4.459  0.3094 -0.1611  0.0513
11999PP      PP22103  11.064  15.175   1.558  0.1849 -0.1758  0.0084
12000PP      PP22104   5.000   0.858   3.577  0.2543 -0.0424  0.2350
12001PP      PP22105  12.084  13.027  12.666  0.3576  0.0359  0.1928
12002PP      PP22106   3.876   3.688   3.041 -0.0421 -0.2832  0.0621
12003PP      PP22107   8.604  12.482   9.156  0.1058 -0.0149 -0.1893
12004PP      PP22108   6.538  12.307   1.847 -0.2369 -0.1979  0.0239
12005PP      PP22109  14.383  14.678  10.146  0.3124 -0.2037  0.0346
12006PP      PP22110   2.309  11.473  10.870  0.2951  0.0484 -0.0944
12007PP      PP22111  11.055   3.759   1.450 -0.1341  0.2005  0.1426
12008PP      PP22112   6.888  12.314   2.202 -0.0374 -0.0941  0.2245
12009PP      PP22113  13.670  15.041  12.249 -0.0460  0.3576  0.0233
12010PP      PP22114   6.133  11.443   2.425  0.1642 -0.0451 -0.1293
12011PP      PP22115   1.449  10.576   2.900 -0.1196 -0.2207 -0.2899
12012PP      PP22116   5.998  14.473   9.949 -0.0142 -0.2222  0.0017
12013PP      PP22117  14.144  13.571   0.224 -0.1394 -0.2544 -0.0220
12014PP      PP22118   2.834   0.263  12.470 -0.0586 -0.2609 -0.2611
12015PP      PP22119  11.448   9.907   1.897  0.1797  0.3335 -0.0506
12016PP      PP22120   2.969   0.721   0.885 -0.1951 -0.2649 -0.0747
12017PP      PP22121  12.368   4.941  13.224  0.1948  0.0566  0.3231
12018PP      PP22122   5.232   8.007  10.101  0.0952 -0.5921  0.0510
12019PP      PP22123  11.598  11.854   1.629  0.0697 -0.1136 -0.1697
12020PP      PP22124   9.393   4.627  11.814  0.0447 -0.2660 -0.0752
12021PP      PP22125   5.984   8.413  12.119  0.0773  0.2278  0.1366
12022PP      PP22126   1.815   6.940   3.441 -0.0975 -0.1415 -0.0593
12023PP      PP22127   3.907  15.707  11.168  0.0758  0.3379  0.1695
12024PP      PP22128  13.760  10.035   2.120 -0.1985 -0.0662 -0.0084
12025PP      PP22129   3.552   1.363  12.448 -0.2562  0.0192 -0.2031
12026PP      PP22130   1.891   6.907   2.928  0.0486  0.0772 -0.4794
12027PP      PP22131   2.901   3.843  12.660 -0.0054 -0.0820 -0.2524
12028PP      PP22132   0.265   9.597   0.210  0.0796 -0.0111  0.3397
12029PP      PP22133   2.925   0.835   0.402  0.0095  0.0460 -0.3943
12030PP      PP22134   8.549  14.011  12.522 -0.1644 -0.1706  0.0733
12031PP      PP22135   0.795   3.196   2.341 -0.4390 -0.0024 -0.0525
12032PP      PP22136   1.968   1.339   9.570  0.1193  0.0689 -0.4161
12033PP      PP22137   1.633   5.297  10.314  0.1243 -0.1773  0.0771
12034PP      PP22138   9.763   7.387   9.093 -0.0429  0.1864  0.1588
12035PP      PP22139   0.191   9.158   1.243 -0.0740  0.0284  0.0391
12036PP      PP22140   7.578   9.017   2.384 -0.3194 -0.2369  0.0258
12037PP      PP22141   1.718   5.670   9.045 -0.1653 -0.0427 -0.0826
12038PP      PP22142   5.093   8.780   9.866  0.0646 -0.0945  0.0520
12039PP      PP22143   9.741   8.374   0.220  0.0113 -0.3400 -0.0525
12040PP      PP22144   4.413   3.014   4.193 -0.1463  0.2655 -0.1484
12041PP      PP22145  13.709   0.600   0.396  0.4105 -0.0249 -0.0132
12042PP      PP22146   3.455   5.133  13.197 -0.1198 -0.1696  0.0108
12043PP      PP22147  13.043  15.434  10.660  0.3372 -0.1158 -0.1120
12044PP      PP22148   2.184  13.208   2.906 -0.0732 -0.2632  0.2271
12045PP      PP22149   1.040   3.134   1.003 -0.1468 -0.1588  0.1596
12046PP      PP22150  15.049  11.146   3.818 -0.0770  0.2021  0.1416
12047PP      PP22151   4.518   8.879   2.782 -0.0057 -0.2033 -0.4033
12048PP      PP22152   8.505  14.513  11.626  0.0266  0.1536 -0.0041
12049PP      PP22153   5.324  10.744   3.235 -0.3107 -0.0888 -0.0734
12050PP      PP22154   6.553  14.514   9.356 -0.0214 -0.0743 -0.1368
12051PP      PP22155   1.714  13.534   8.717  0.0680  0.1703  0.2975
12052PP      PP22156   6.218   9.244   9.797  0.4730 -0.1599  0.1706
12053PP      PP22157   0.314   6.446   2.447  0.0341 -0.0042 -0.0587
12054PP      PP22158   1.273   4.030   9.108  0.0560 -0.1440  0.0005
12055PP      PP22159   1.835  12.120   0.655  0.2072  0.2821  0.0038
12056PP      PP22160   6.983  10.819  12.176  0.0159 -0.0667 -0.2534
12057PP      PP22161   4.107   0.441  11.955 -0.2476  0.2364  0.2070
12058PP      PP22162  13.023   4.533   2.757 -0.1739  0.0018  0.4474
12059PP      PP22163   8.009   3.644  12.043  0.0829 -0.2348  0.0225
12060PP      PP22164   3.211   6.669   4.233 -0.1832 -0.3525 -0.0805
12061PP      PP22165   2.875  12.214   3.763  0.1083 -0.0788  0.2103
12062PP      PP22166   4.055  13.881   2.794 -0.0163  0.0140  0.0155
12063PP      PP22167  14.510   2.529   9.669 -0.0352 -0.0974  0.1460
12064PP      PP22168  12.316   6.533   3.701  0.0360  0.4797  0.2121
12065PP      PP22169   5.393   9.452   2.735  0.0264 -0.4662 -0.2591
12066PP      PP22170  13.540   5.213   1.234 -0.0586  0.2709 -0.1087
12067PP      PP22171   8.526   9.398   0.293  0.1646 -0.0405  0.4500
12068PP      PP22172   8.507   0.774   9.360 -0.0006  0.1552  0.0092
12069PP      PP22173  13.952  10.847   0.023 -0.3482 -0.0450 -0.2767
12070PP      PP22174   3.170  15.768   3.009  0.0794  0.3779 -0.0733
12071PP      PP22175  14.535   2.026   2.796  0.1892  0.2123 -0.2512
12072PP      PP22176   4.697   5.522  10.985  0.0658 -0.1085  0.0537
12073PP      PP22177   3.294   7.062   2.143  0.0748  0.0985  0.2304
12074PP      PP22178   0.483  12.429   2.504  0.1044 -0.1687  0.0354
12075PP      PP22179   1.463  13.924   8.894 -0.3388 -0.1131  0.0379
12076PP      PP22180   8.019   9.451   3.620 -0.1737 -0.1785  0.0448
12077PP      PP22181   6.061  12.949  11.254  0.3554  0.0656  0.2038
12078PP      PP22182   8.481   8.494   9.688 -0.0374  0.0114 -0.0575
12079PP      PP22183  15.097  10.148   3.998  0.2567 -0.0820  0.2975
12080PP      PP22184   4.257   4.338  12.916 -0.2206 -0.0636 -0.0574
12081PP      PP22185  10.541   5.677  11.951 -0.0822  0.0870 -0.1627
12082PP      PP22186   6.046   4.746   4.192  0.0346  0.1337  0.0782
12083PP      PP22187   5.199  14.836   2.501  0.2258 -0.2377 -0.1082
12084PP      PP22188  15.125  15.291  12.429 -0.0692  0.3829  0.0053
12085PP      PP22189  12.815  10.423   1.921 -0.5658  0.2445 -0.2672
12086PP      PP22190   9.673  10.783   9.008 -0.3288  0.1711 -0.1312
12087PP      PP22191   7.392  13.795  13.461  0.1600 -0.0793  0.0738
12088PP      PP22192   6.698  10.275   4.423  0.0165  0.1219 -0.3032
12089PP      PP22193   4.315   1.698   9.447 -0.1096  0.1567  0.0859
12090PP      PP22194   6.678  10.441  13.446 -0.1555 -0.2463 -0.0766
12091PP      PP22195  12.417  10.612   3.253  0.0852 -0.1285 -0.0480
12092PP      PP22196   6.858   6.095  12.851 -0.1401  0.3473  0.2286
12093PP      PP22197  10.640  12.382   4.555  0.1581  0.2054 -0.2979
12094PP      PP22198   3.995   5.903  11.418 -0.1011 -0.0734  0.1614
12095PP      PP22199  12.733   9.946   1.832 -0.2675  0.2338  0.1162
12096PP      PP22200   6.959   3.912   2.422 -0.0636 -0.0194  0.2640
12097PP      PP22201   4.534   7.702  11.140 -0.1197  0.0245  0.0653
12098PP      PP22202   1.604  15.531   0.796 -0.0612  0.2242  0.0465
12099PP      PP22203   0.925  15.528  12.090 -0.2477  0.1576  0.1895
12100PP      PP22204   9.291   1.262  11.505 -0.0427 -0.1375  0.0902
12101PP      PP22205   5.104   0.971  10.079 -0.0432  0.0388  0.0513
12102PP      PP22206  10.495   6.173  12.359  0.1972 -0.0682  0.0588
12103PP      PP22207   5.108   6.833  11.142 -0.1245 -0.1940  0.0453
12104PP      PP22208  10.141   0.177   4.912  0.1625 -0.1276 -0.0368
12105PP      PP22209   2.402   5.500   9.643  0.2020  0.2259 -0.1461
12106PP      PP22210   1.654  13.115   1.193  0.2547  0.0903  0.2073
12107PP      PP22211  13.241  12.693  10.905 -0.1898 -0.3497 -0.0654
12108PP      PP22212   1.039   7.830  10.069 -0.1704  0.0274 -0.0785
12109PP      PP22213  13.141   7.624   1.630 -0.1121 -0.0816  0.0347
12110PP      PP22214   4.508   3.069  12.495  0.0597 -0.1424 -0.1674
12111PP      PP22215  12.192   7.373   3.174 -0.3016 -0.0012 -0.0384
12112PP      PP22216   8.242   4.589   1.099  0.0044 -0.1896  0.1377
12113PP      PP22217  15.653   0.994  13.042  0.1736 -0.2246 -0.3363
12114PP      PP22218  13.269   6.116  11.536  0.2588  0.1092 -0.1843
12115PP      PP22219  12.761  13.213   0.687  0.1308 -0.1562 -0.2482
12116PP      PP22220   4.575  13.017   9.685  0.0002 -0.0521  0.2218
12117PP      PP22221   4.968  15.736  11.218 -0.0927  0.3892  0.0324
12118PP      PP22222   8.168   8.027  13.452 -0.0125 -0.0055 -0.2581
12119PP      PP22223   7.282  13.954   2.604  0.1230  0.1430 -0.2701
12120PP      PP22224  11.248   9.465  12.745  0.0241  0.0901 -0.1938
12121PP      PP22225  15.172  10.448   9.630 -0.3603  0.4954  0.1889
12122PP      PP22226   3.649   2.781  10.283  0.0205  0.1806  0.1700
12123PP      PP22227   0.649   7.831   0.605 -0.0247 -0.1251  0.0159
12124PP      PP22228   7.723   8.266   9.369 -0.2662 -0.3972 -0.1690
12125PP      PP22229   4.499   4.319   0.643 -0.0262 -0.1099 -0.1452
12126PP      PP22230  12.750  11.540  11.753  0.0367  0.1600  0.0998
12127PP      PP22231  12.283   8.541  12.230  0.0744 -0.0099  0.4604
12128PP      PP22232   3.641  15.299   4.643  0.0821 -0.0916 -0.0906
12129PP      PP22233   8.981   1.708   5.006  0.2084  0.2349 -0.0225
12130PP      PP22234  15.632  13.078   3.383  0.1920 -0.1474 -0.1569
12131PP      PP22235   9.804   9.007   9.051 -0.0674 -0.1886 -0.2215
12132PP      PP22236   1.838   9.986  10.240  0.0984 -0.1121 -0.2120
12133PP      PP22237   6.665  10.222  12.505  0.2031 -0.1011  0.1267
12134PP      PP22238  10.952   0.510   9.627 -0.1535  0.1439 -0.2270
12135PP      PP22239   9.425   7.558  11.380 -0.2166 -0.1637 -0.3331
12136PP      PP22240   8.058   6.423   9.883 -0.0250 -0.1831 -0.0713
12137PP      PP22241  14.580   6.559   1.589  0.1109  0.0599  0.1353
12138PP      PP22242  12.535   3.043   0.989 -0.3337 -0.1663  0.3711
12139PP      PP22243  12.987   6.128   2.204  0.4156 -0.1450  0.0059
12140PP      PP22244   0.801  12.716   2.755  0.1163  0.2447 -0.1209
12141PP      PP22245   7.191  13.345  13.358 -0.2462 -0.3662  0.2313
12142PP      PP22246  11.012   1.488   3.545  0.0451  0.1068 -0.0112
12143PP      PP22247   4.841   3.536  11.626 -0.0573  0.2026 -0.1022
12144PP      PP22248  12.673  14.833   1.815  0.3617  0.1954 -0.1820
12145PP      PP22249  10.592  11.114   0.482 -0.0568  0.0118 -0.0193
12146PP      PP22250   2.289   6.516   0.691 -0.1218  0.3131 -0.3271
12147PP      PP22251   4.384   0.881   2.671 -0.1281 -0.1671  0.0511
12148PP      PP22252  14.941  10.337  10.461  0.1516 -0.1972  0.0060
12149PP      PP22253   1.238   2.293  10.439 -0.1357 -0.1347  0.1727
12150PP      PP22254   2.455   4.758  12.522 -0.0797 -0.0438 -0.0223
12151PP      PP22255  14.514   9.050   1.114 -0.0296  0.0778  0.0280
12152PP      PP22256   8.441   3.717   4.053 -0.2793  0.0754  0.0380
12153PP      PP22257   6.666   7.817  12.708 -0.0790 -0.0319 -0.3177
12154PP      PP22258   5.699  12.004   2.868 -0.2915  0.0016 -0.0448
12155PP      PP22259   8.956   3.769  12.987  0.4096  0.1999 -0.2383
12156PP      PP22260   2.877   9.722  10.768 -0.2456  0.1661 -0.1452
12157PP      PP22261   3.664   0.853   1.290 -0.2995 -0.2303  0.2596
12158PP      PP22262  13.998  10.113   1.647 -0.0225 -0.1690  0.1091
12159PP      PP22263  10.645   4.908   7.969  0.0357 -0.0037  0.3823
12160PP      PP22264   3.878   8.471   9.767 -0.1137 -0.1442 -0.4641
12161PP      PP22265   7.665   9.874  12.694 -0.1067  0.2749  0.0007
12162PP      PP22266  12.565  12.888  12.880  0.0027 -0.0693 -0.0003
12163PP      PP22267  13.821  14.737   0.055 -0.3051 -0.1844 -0.0211
12164PP      PP22268   8.807   5.401  10.209 -0.0742  0.2971 -0.2053
12165PP      PP22269  15.237   1.283  11.487 -0.1116 -0.3311  0.0902
12166PP      PP22270   4.616   9.390  10.407 -0.3677  0.0582 -0.2084
12167PP      PP22271  13.098   1.668  10.027  0.0970 -0.0319  0.5455
12168PP      PP22272  12.314   8.837  10.925  0.0060  0.1225  0.3992
12169PP      PP22273   8.496  14.833   2.309 -0.3110 -0.0686 -0.1519
12170PP      PP22274   6.132   6.293   2.062  0.0397 -0.0600  0.1890
12171PP      PP22275   2.394  11.534   1.577  0.0857  0.1015 -0.1452
12172PP      PP22276  10.137  12.415  12.114 -0.1685  0.1021 -0.3219
12173PP      PP22277  13.372   4.653   1.007 -0.0207  0.0218 -0.0064
12174PP      PP22278   8.213   4.398   9.981  0.2672  0.0415 -0.2240
12175PP      PP22279   7.449   9.067  10.761 -0.1001 -0.0337 -0.1240
12176PP      PP22280   3.497  12.369   1.309  0.1414  0.0415 -0.0897
12177PP      PP22281  15.039   1.068  12.005  0.3107 -0.0288  0.0019
12178PP      PP22282   0.515   6.090  13.522 -0.2190 -0.1515  0.3157
12179PP      PP22283  12.118  11.698  12.058  0.2080 -0.2415  0.4793
12180PP      PP22284  14.998   0.446  12.068  0.0667  0.2431  0.0462
12181PP      PP22285  15.523   7.872   0.224 -0.2528 -0.0585  0.3740
12182PP      PP22286  11.068  14.751  10.209 -0.1154 -0.0559  0.1089
12183PP      PP22287  11.069   0.926   0.896  0.1767 -0.4823  0.2757
12184PP      PP22288  14.317   2.936   1.057 -0.0274  0.0941 -0.2626
12185PP      PP22289   0.411   2.454  13.474 -0.2342 -0.0109 -0.3024
12186PP      PP22290   2.633  13.587  13.255  0.0457  0.0808 -0.0403
12187PP      PP22291   0.447   6.894   1.354  0.0946 -0.1835  0.0626
12188PP      PP22292   1.303   6.878   1.772 -0.0345 -0.2130  0.0205
12189PP      PP22293   2.919   1.650  12.871  0.1694 -0.1032 -0.1570
12190PP      PP22294   0.209   8.297  12.734 -0.3698  0.4476  0.0795
12191PP      PP22295  13.856  15.489   0.358  0.2156 -0.3095  0.2249
12192PP      PP22296   0.179   1.305   0.589  0.3001  0.1194 -0.1655
12193PP      PP22297   2.748  12.989   0.948  0.3136 -0.1495 -0.1484
12194PP      PP22298  14.834   2.301   8.654  0.3540  0.1565 -0.0305
12195PP      PP22299   9.685  15.782   3.176  0.0563  0.0020  0.0468
12196PP      PP22300   8.710   3.454   2.001  0.0723  0.1035 -0.0164
12197PP      PP22301   5.293   1.886  10.822  0.0054 -0.2774 -0.1493
12198PP      PP22302   1.045   9.383  11.753 -0.3781 -0.2545 -0.3441
12199PP      PP22303   6.447   9.528  11.916  0.1247 -0.0055  0.0084
12200PP      PP22304  13.289  10.826   1.868  0.1656 -0.0266  0.0015
12201PP      PP22305   0.482   5.581   8.449 -0.1900  0.0624 -0.1606
12202PP      PP22306  14.662  12.382  12.700  0.1502 -0.2290  0.1919
12203PP      PP22307  12.376   9.833   9.009 -0.0955 -0.1767  0.0618
12204PP      PP22308   7.438  12.869  11.117  0.0746 -0.1963 -0.3346
12205PP      PP22309   0.526   3.506   0.678  0.0690  0.1949 -0.1833
12206PP      PP22310  15.854   8.214   9.167 -0.0385  0.1320 -0.4564
12207PP      PP22311  15.001   2.481   0.774 -0.0387 -0.0817 -0.2638
12208PP      PP22312   3.434  15.660   2.048  0.2599 -0.2543 -0.3870
12209PP      PP22313   1.945   8.717  11.246 -0.2899  0.3064 -0.1286
12210PP      PP22314  12.221  15.098   9.667  0.2925  0.0982 -0.0239
12211PP      PP22315  10.472   0.285   9.737  0.0272 -0.0508  0.2264
12212PP      PP22316   3.332  10.797   1.852  0.0580  0.3801  0.2842
12213PP      PP22317   4.652   5.086   9.447  0.3113 -0.0540  0.0181
12214PP      PP22318  11.623   2.783   4.262  0.1091 -0.2213  0.0218
12215PP      PP22319   7.693   2.311   9.906  0.0734 -0.0856 -0.0834
12216PP      PP22320  13.313  11.731   3.417  0.1320  0.1137 -0.0226
12217PP      PP22321   6.700   6.849   8.504 -0.0762 -0.1235 -0.1492
12218PP      PP22322  12.303   7.211   2.415  0.2786  0.0921 -0.1017
12219PP      PP22323   5.423   4.436   8.849 -0.0820  0.1556 -0.0003
12220PP      PP22324  15.195   2.527   1.503  0.0399  0.1294 -0.0428
12221PP      PP22325   5.164   5.532   2.851 -0.1897  0.2829 -0.0846
12222PP      PP22326   4.359  10.535   0.442 -0.1774  0.0946  0.3380
12223PP      PP22327  15.400   8.413  11.191 -0.1575 -0.0064  0.2319
12224PP      PP22328  10.103   7.213   0.478 -0.2050  0.0133 -0.2702
12225PP      PP22329   0.887   5.894   8.677  0.2179 -0.3019 -0.1978
12226PP      PP22330   3.211  12.220   0.432  0.2280 -0.0385 -0.0479
12227PP      PP22331   2.906   2.170   1.423  0.3449  0.1613 -0.0039
12228PP      PP22332   2.886  11.633   1.126 -0.1780 -0.1733 -0.0770
12229PP      PP22333  13.411  12.215   1.209 -0.1230 -0.1273 -0.0440
12230PP      PP22334  10.223   3.859  12.325  0.1721 -0.1337 -0.2521
12231PP      PP22335   8.088  12.434   2.254  0.6023 -0.0580 -0.1151
12232PP      PP22336   6.127  15.308   1.993 -0.0069 -0.0640 -0.0214
12233PP      PP22337   3.042  13.293  11.049 -0.0287 -0.0978  0.1476
12234PP      PP22338  10.941   0.657   0.498 -0.1458 -0.1867  0.2741
12235PP      PP22339  11.353   7.113  12.514  0.1563 -0.1864 -0.0534
12236PP      PP22340  10.560   2.783   3.645 -0.1245 -0.1526 -0.2121
12237PP      PP22341  14.046   0.898  12.405 -0.2041  0.0495  0.0372
12238PP      PP22342   9.460   0.968   4.853  0.0390 -0.4475 -0.2442
12239PP      PP22343   0.783   6.716   9.189  0.0135  0.0232 -0.2786
12240PP      PP22344   8.056   6.352  11.696  0.1190  0.0348 -0.0570
12241PP      PP22345   1.095   9.295   1.825  0.2580  0.0952 -0.0455
12242PP      PP22346   4.838   2.086  11.852 -0.1707 -0.1096  0.2336
12243PP      PP22347   0.788  12.859   4.366 -0.0759  0.0429 -0.0766
12244PP      PP22348  12.176   7.884  11.748  0.1738 -0.1647  0.0219
12245PP      PP22349  11.432   8.425  13.185  0.0541  0.0170 -0.1422
12246PP      PP22350   2.031   4.898   9.359 -0.1289 -0.0398 -0.0600
12247PP      PP22351   1.904  13.915   9.717  0.2445  0.2416  0.0217
12248PP      PP22352   9.685   1.172   0.684  0.4248 -0.0105 -0.0737
12249PP      PP22353   8.834   1.400  13.307  0.0355 -0.3447 -0.2993
12250PP      PP22354   0.085   9.498  11.061 -0.0409 -0.0548 -0.2164
12251PP      PP22355  11.498   3.730   9.450  0.1497 -0.1268  0.1647
12252PP      PP22356   7.972   9.522  11.841 -0.0538 -0.0507 -0.0717
12253PP      PP22357   8.672   9.307   2.588 -0.1232 -0.0903 -0.0293
12254PP      PP22358  11.839   5.645   2.983  0.0291  0.0570  0.1134
12255PP      PP22359  10.667   0.253   4.112 -0.1579  0.0167  0.1331
12256PP      PP22360   0.432   1.350   9.304  0.1437  0.1229  0.0101
12257PP      PP22361  10.654   8.944   0.010 -0.0697  0.1396  0.1048
12258PP      PP22362  15.414   4.627  10.547  0.3565  0.2910  0.1362
12259PP      PP22363   4.679   4.532  12.812  0.0789 -0.1077  0.1291
12260PP      PP22364   6.128   3.442  13.222  0.1686 -0.0464 -0.0605
12261PP      PP22365   4.082  12.711  12.434 -0.1445  0.3746  0.1103
12262PP      PP22366  14.083   7.940   2.993 -0.2730  0.0540  0.0714
12263PP      PP22367  11.771   1.380   3.042  0.2051 -0.1223 -0.0098
12264PP      PP22368  10.099  13.324   3.963  0.0073 -0.0538 -0.0866
12265PP      PP22369   6.956   7.125  11.036 -0.4092 -0.0204 -0.0602
12266PP      PP22370  10.667   0.372  11.101 -0.0237  0.0202 -0.3502
12267PP      PP22371   0.527   2.362  11.090  0.0870 -0.1251  0.1200
12268PP      PP22372  14.967  10.920   3.364 -0.1078  0.0937  0.0185
12269PP      PP22373  11.494   3.897   1.163  0.3493  0.0828  0.4934
12270PP      PP22374  12.650   3.030   9.553  0.1287  0.0496  0.0243
12271PP      PP22375  12.360   8.252  11.045 -0.0070 -0.0944 -0.2002
12272PP      PP22376   3.801   7.752   3.599 -0.0486 -0.2347  0.2071
12273PP      PP22377   9.764  11.257  12.958  0.0248  0.1117  0.1111
12274PP      PP22378  10.497  13.820  11.265 -0.2896 -0.4485 -0.2471
12275PP      PP22379   8.024  13.486   0.670  0.1873 -0.0451  0.1169
12276PP      PP22380   9.744   2.478   3.654 -0.0011 -0.2652 -0.0044
12277PP      PP22381  12.334   3.534   9.853 -0.2748  0.3655  0.1276
12278PP      PP22382   4.638  11.193   3.188 -0.0176  0.1412 -0.2681
12279PP      PP22383   2.309   6.667   2.684  0.1676 -0.0276 -0.1174
12280PP      PP22384   6.539   1.761  12.871  0.3057 -0.2815 -0.0932
12281PP      PP22385   0.701  15.374  12.510 -0.1677 -0.3661  0.2837
12282PP      PP22386   0.742  10.967  11.347 -0.2030 -0.0833 -0.1663
12283PP      PP22387   3.524   2.833   4.610 -0.0260  0.1337 -0.2201
12284PP      PP22388  12.215   2.286   4.240  0.0409 -0.2348 -0.0649
12285PP      PP22389   6.446   0.304   4.233 -0.0073 -0.1822  0.1775
12286PP      PP22390   5.067   4.320   1.553  0.0108  0.0150  0.1232
12287PP      PP22391   8.292  14.055   2.061 -0.3052  0.0677 -0.4166
12288PP      PP22392   5.722  10.610  12.471  0.1099  0.0598  0.0431
12289PP      PP22393  12.448   8.245   8.335 -0.2498  0.0107  0.0042
12290PP      PP22394   1.716  13.322   9.522 -0.1617  0.0283 -0.1785
12291PP      PP22395   6.581  11.692   0.891 -0.0607 -0.1827  0.0983
12292PP      PP22396  10.831   1.066   2.521  0.1167  0.0318 -0.0434
12293PP      PP22397   7.737  10.402   1.096 -0.1351  0.2752  0.1455
12294PP      PP22398  15.318  15.383  13.524 -0.1109 -0.1035  0.2261
12295PP      PP22399   7.891   4.831   0.319  0.2616  0.1373 -0.0480
12296PP      PP22400   0.544  12.160   0.016 -0.2120 -0.0306 -0.2849
12297PP      PP22401   7.088  10.197  12.114  0.2050  0.0898  0.0301
12298PP      PP22402  13.106   7.418  11.663  0.2986 -0.2924 -0.0201
12299PP      PP22403   3.350   8.599   3.880 -0.2071 -0.2276 -0.2309
12300PP      PP22404   8.340   9.502   0.774 -0.0798  0.0549 -0.0553
12301PP      PP22405  11.297   0.726   3.393  0.2304  0.1144  0.1480
12302PP      PP22406   2.111   4.854   1.254 -0.1296  0.1827 -0.0284
12303PP      PP22407  10.917  15.329  10.048 -0.1733 -0.1827  0.2206
12304PP      PP22408   3.304  14.411   1.151 -0.2001 -0.1640 -0.1089
12305PP      PP22409   6.841  14.823   4.722  0.0404  0.0311 -0.0889
12306PP      PP22410   0.101   6.932   0.967  0.1552  0.3211  0.2533
12307PP      PP22411   7.893   4.498   3.437 -0.0559 -0.0075  0.0465
12308PP      PP22412  14.391   8.110   1.188  0.1420 -0.0035 -0.1323
12309PP      PP22413   3.289   6.070   3.237  0.1792 -0.2841 -0.1238
12310PP      PP22414   1.368  10.924   4.375 -0.2240  0.1346 -0.3033
12311PP      PP22415   1.202   9.358   2.663 -0.0754 -0.0827 -0.2728
12312PP      PP22416  14.990   0.930   0.975 -0.0813  0.0495  0.0096
12313PP      PP22417  13.391  15.487  12.484  0.2222 -0.2303 -0.0191
12314PP      PP22418   8.595   2.936  12.659 -0.1620 -0.1258  0.1543
12315PP      PP22419   7.579   4.592   2.993  0.2911 -0.2640 -0.1112
12316PP      PP22420  15.538   3.623   0.343  0.0822  0.0534 -0.1276
12317PP      PP22421   8.370   4.199   1.443 -0.1271 -0.1836 -0.0479
12318PP      PP22422   3.710  14.960  12.277 -0.1562  0.0888 -0.2135
12319PP      PP22423   8.013  10.052   2.156 -0.0078 -0.2981 -0.2196
12320PP      PP22424  12.344   5.863   8.317 -0.2787 -0.0898 -0.2336
12321PP      PP22425  10.431  11.956   3.596 -0.1501  0.0767 -0.2620
12322PP      PP22426  14.973  15.860   9.241 -0.1393  0.0686 -0.0521
12323PP      PP22427   9.244   7.603   1.830 -0.0422 -0.0790  0.3420
12324PP      PP22428   6.797   6.485   3.009  0.1614  0.1034 -0.3095
12325PP      PP22429   5.208   5.045   9.686 -0.0179 -0.2547 -0.0826
12326PP      PP22430   9.284   4.078   2.417 -0.0112  0.2504 -0.1597
12327PP      PP22431  15.805   5.455   9.307 -0.1278 -0.2749  0.2844
12328PP      PP22432   5.826   3.462  11.359  0.1123 -0.3877  0.0604
12329PP      PP22433  12.735   1.717   0.513  0.0579 -0.4679 -0.3399
12330PP      PP22434   7.020  13.338   2.123  0.2841  0.0471 -0.1156
12331PP      PP22435   0.550   0.341   9.001  0.3665  0.1305  0.2924
12332PP      PP22436   5.787   1.677  12.163 -0.2378 -0.3653  0.0862
12333PP      PP22437   7.054   7.577   0.503  0.1132  0.2340  0.0060
12334PP      PP22438  14.625   2.193   1.876  0.1229 -0.1514  0.1495
12335PP      PP22439   6.655  14.934   9.652  0.3293 -0.1915  0.0532
12336PP      PP22440  11.419  13.597   1.137  0.0930 -0.0751  0.2808
12337PP      PP22441   3.810  12.366   9.637 -0.0407  0.0268 -0.0567
12338PP      PP22442  13.655   8.695   0.193 -0.1182  0.3504 -0.3979
12339PP      PP22443  10.349  14.968  13.351 -0.1181 -0.1613  0.1673
12340PP      PP22444  13.395   1.121   1.083  0.1714  0.1134 -0.2050
12341PP      PP22445  11.002   7.573   2.917  0.1824  0.1620 -0.1789
12342PP      PP22446  12.734  14.144  13.512  0.0982 -0.2896  0.3398
12343PP      PP22447   8.554   3.316   8.899 -0.1939  0.1884 -0.0997
12344PP      PP22448  12.527   5.729   2.370 -0.1112  0.0157  0.0845
12345PP      PP22449   6.585  14.533  11.150 -0.0118 -0.0209  0.1579
12346PP      PP22450   0.989  15.371  10.926  0.0543  0.0016  0.1978
12347PP      PP22451   6.437   9.760  12.634 -0.2276 -0.0667  0.1879
12348PP      PP22452  10.789   0.118  13.420 -0.1238  0.2673  0.2144
12349PP      PP22453  13.353   5.661   3.015 -0.0778  0.0930  0.0915
12350PP      PP22454   0.971   0.056   9.193  0.3766  0.2531  0.1675
12351PP      PP22455  12.017  15.436   1.771  0.0615 -0.3241 -0.1389
12352PP      PP22456  11.878   6.687  12.121 -0.0753  0.2081 -0.0781
12353PP      PP22457   5.342  10.213   8.359  0.3751  0.4036 -0.2434
12354PP      PP22458  12.003   4.992  12.156  0.4240 -0.2438  0.0424
12355PP      PP22459  10.605   5.706  10.428 -0.0824  0.1771 -0.2302
12356PP      PP22460   6.665   9.853   9.067 -0.2252 -0.1047  0.0397
12357PP      PP22461   3.039   6.833   1.602  0.0752  0.0112 -0.0247
12358PP      PP22462  13.435  10.417  12.231 -0.2870  0.3605  0.0395
12359PP      PP22463   4.269  13.262  10.024 -0.0479 -0.4297  0.1524
12360PP      PP22464   0.932   0.548   9.849 -0.2467 -0.3476 -0.0069
12361PP      PP22465   6.208  15.409  11.031 -0.1968  0.2348 -0.1756
12362PP      PP22466   6.077   2.508   3.130 -0.0520  0.0459  0.0466
12363PP      PP22467  10.964  13.453   9.007  0.5305  0.0923 -0.1602
12364PP      PP22468  14.791   0.275   9.559 -0.1963  0.0255 -0.3500
12365PP      PP22469   0.673  15.767   3.279 -0.0742 -0.0859  0.3008
12366PP      PP22470   7.670   0.064   2.626  0.3097  0.0519 -0.0663
12367PP      PP22471  12.243   7.098   0.715  0.1643  0.0554 -0.0293
12368PP      PP22472  11.701   8.479   0.167 -0.0072  0.0177 -0.0669
12369PP      PP22473  10.290  13.670   0.110  0.1311 -0.0270  0.0966
12370PP      PP22474  10.633   9.243   9.299  0.0342  0.2626  0.2324
12371PP      PP22475   0.093   2.880   2.336 -0.3746 -0.0545 -0.0148
12372PP      PP22476   9.973  10.929   9.961  0.1141  0.1027 -0.0818
12373PP      PP22477  12.658   8.244   2.027 -0.1854 -0.3742 -0.3639
12374PP      PP22478   7.646   0.981   1.419  0.0390  0.1170 -0.1154
12375PP      PP22479  14.313   6.221  12.391  0.1595 -0.0220  0.0207
12376PP      PP22480   7.892  14.004  10.585  0.3314 -0.2291  0.2282
12377PP      PP22481   6.666   0.619  10.565 -0.2534  0.1232  0.2413
12378PP      PP22482   7.408   5.523   2.837  0.2422 -0.0948  0.0757
12379PP      PP22483   6.135   4.038   0.312  0.0516  0.1514  0.1285
12380PP      PP22484   1.785   8.862   9.014  0.0180  0.3433 -0.3284
12381PP      PP22485   1.472   6.471   8.794 -0.1286  0.0021 -0.3171
12382PP      PP22486   2.322  11.850   0.563  0.0201 -0.0622  0.2039
12383PP      PP22487  12.823  15.787  13.288  0.1513 -0.2720 -0.1392
12384PP      PP22488   3.026  10.931   9.281 -0.2130 -0.1484 -0.3289
12385PP      PP22489  15.325   4.576  11.030  0.1808  0.0322 -0.4263
12386PP      PP22490   6.068   8.388  13.225 -0.0759  0.0288 -0.0691
12387PP      PP22491   8.435   1.884   5.004 -0.0145 -0.4706 -0.0381
12388PP      PP22492   2.012   3.015   0.770 -0.2165  0.0883  0.2456
12389PP      PP22493   7.920   4.699   2.597 -0.0311 -0.1493 -0.1606
12390PP      PP22494  11.023  15.561   1.207  0.0050 -0.0911 -0.1166
12391PP      PP22495  10.757   1.016  13.231 -0.2827  0.4010  0.0013
12392PP      PP22496   1.113  12.925  11.263  0.2823 -0.0039  0.0182
12393PP      PP22497  15.731  12.977   2.475 -0.0089  0.0059 -0.0554
12394PP      PP22498   2.969   1.387  11.559 -0.3356 -0.0717  0.0890
12395PP      PP22499   3.015  12.962  10.581  0.1854  0.0533  0.0612
12396PP      PP22500   7.395   4.248  11.428  0.0847 -0.3109 -0.0004
12397PP      PP22501   4.248  12.993   1.301  0.1805  0.0798 -0.2750
12398PP      PP22502   9.332  10.643   9.384  0.0310 -0.0973  0.0028
12399PP      PP22503   3.288   7.604   2.435  0.0137  0.1827  0.0781
12400PP      PP22504   7.390  11.927   2.126  0.0438  0.2340 -0.2534
12401PP      PP22505  11.965   0.891  11.216 -0.1239 -0.1964  0.2924
12402PP      PP22506   7.972   6.648  12.490 -0.1695 -0.0809 -0.0307
12403PP      PP22507   0.974  15.662   0.463 -0.0460 -0.1182  0.4413
12404PP      PP22508   9.512   9.565  10.608  0.2675  0.1224  0.4056
12405PP      PP22509  14.731  14.398  10.342  0.4013  0.2443  0.1376
12406PP      PP22510  10.523  15.230  12.508 -0.0657  0.0983 -0.0998
12407PP      PP22511   7.765   9.692   1.590 -0.2927 -0.0942 -0.2450
12408PP      PP22512   2.334   0.447  10.756  0.1401  0.0997 -0.1283
12409PP      PP22513   8.190   6.972   1.202  0.2081  0.2785 -0.0637
12410PP      PP22514   2.043  10.061   4.008  0.0458  0.0388 -0.1224
12411PP      PP22515   8.849  12.004   1.154 -0.0195  0.1044 -0.0374
12412PP      PP22516  13.240   5.632   9.199  0.1699 -0.5810  0.1850
12413PP      PP22517  15.866   5.350   3.423  0.1166 -0.1642  0.0816
12414PP      PP22518   8.120   0.110   4.304 -0.2110  0.2679  0.2136
12415PP      PP22519   7.787   5.074   3.029 -0.2547 -0.0113 -0.1314
12416PP      PP22520  13.498   0.363   3.719 -0.1424 -0.0290  0.2730
12417PP      PP22521  15.332   5.887   8.159  0.1639 -0.1676  0.0515
12418PP      PP22522   7.310  14.456  10.779 -0.3186  0.0386  0.4100
12419PP      PP22523   1.213  11.100   2.477 -0.0447  0.2398  0.0020
12420PP      PP22524   2.148  13.021   9.564  0.0008  0.2571 -0.2625
12421PP      PP22525   2.923   3.707   4.402 -0.0810 -0.1610  0.1534
12422PP      PP22526   8.797   0.815  12.072  0.0197 -0.3386 -0.0053
12423PP      PP22527   3.411  12.791   1.710 -0.2147 -0.1800  0.2720
12424PP      PP22528   4.975  10.472   3.393  0.0070 -0.0569 -0.0778
12425PP      PP22529   5.928   7.121   0.314  0.0949  0.0843  0.1726
12426PP      PP22530   5.608  13.383   2.713  0.2094  0.1923 -0.1852
12427PP      PP22531   0.451  14.773   9.515  0.0628 -0.1806 -0.2922
12428PP      PP22532   2.435  15.782  10.748 -0.1258 -0.0554 -0.0230
12429PP      PP22533   0.893   1.995  12.060  0.0993  0.1561 -0.0365
12430PP      PP22534  15.026   0.197   0.176 -0.0544  0.2354 -0.2159
12431PP      PP22535   6.732   0.383  11.919  0.0233  0.0502 -0.2070
12432PP      PP22536  13.946   8.852   2.828 -0.1002  0.0384 -0.0708
12433PP      PP22537  10.737   6.741   1.635  0.0523 -0.1629 -0.2722
12434PP      PP22538   7.433  13.191   1.840  0.3803  0.1956  0.0167
12435PP      PP22539   7.199   8.367  12.771  0.0122  0.0132  0.0109
12436PP      PP22540  10.358   1.712   1.737  0.2229 -0.1630  0.2616
12437PP      PP22541  15.050   2.693  13.245 -0.3848  0.0655 -0.1590
12438PP      PP22542  11.114   4.450   0.681 -0.0817  0.2884  0.0141
12439PP      PP22543   3.529  14.331  10.113  0.1894  0.0361 -0.3054
12440PP      PP22544   7.598   7.302   9.621 -0.4408 -0.1814 -0.0460
12441PP      PP22545  13.712   3.049   9.079  0.3821  0.1292  0.1713
12442PP      PP22546  15.139   8.554  13.081 -0.2432  0.3075 -0.3006
12443PP      PP22547  13.253   3.555   3.449 -0.2114 -0.0821  0.1357
12444PP      PP22548   1.236   1.618   1.551  0.1386  0.1861  0.2606
12445PP      PP22549   6.339   4.014   3.411 -0.2797  0.3725 -0.1432
12446PP      PP22550   2.525  10.471   9.640 -0.1050 -0.3903 -0.2004
12447PP      PP22551  13.627   4.796  13.452  0.1791  0.0061 -0.1154
12448PP      PP22552   0.292   7.795   0.991 -0.3737 -0.3354 -0.0517
12449PP      PP22553   3.301   7.776   8.805  0.0138 -0.3748 -0.3284
12450PP      PP22554  15.287  10.081  11.862  0.0220 -0.0753  0.0220
12451PP      PP22555  13.488  15.079  10.616  0.3827 -0.0054 -0.0155
12452PP      PP22556   4.027   3.820   0.090  0.2123 -0.1670 -0.1411
12453PP      PP22557   6.451   1.130   3.151 -0.0834  0.4333  0.0264
12454PP      PP22558   6.685   3.095   0.245 -0.0923 -0.0792  0.4386
12455PP      PP22559  10.883   4.177  10.018  0.1302  0.0535 -0.0857
12456PP      PP22560  15.425  11.318   4.770 -0.0666  0.0534 -0.3831
12457PP      PP22561   4.155   7.555  13.150 -0.0425  0.0502 -0.0942
12458PP      PP22562   9.518   4.063  11.830 -0.0949 -0.2844  0.1338
12459PP      PP22563   1.185   7.388  13.343  0.1141  0.0576  0.0087
12460PP      PP22564  12.394  10.304  10.702 -0.0893  0.2622  0.1204
12461PP      PP22565  13.001   4.840   9.209  0.0920  0.1307  0.1216
12462PP      PP22566   8.055   7.103  13.277 -0.1030 -0.0808  0.0852
12463PP      PP22567   5.709   6.325  10.962 -0.0380 -0.3000 -0.1290
12464PP      PP22568   4.957   4.535   8.846  0.0791  0.0507  0.2944
12465PP      PP22569   5.118   0.626   1.364  0.1106 -0.3881 -0.0653
12466PP      PP22570   6.782  11.255   0.073  0.1529  0.1813 -0.1504
12467PP      PP22571   3.414  10.229   1.130  0.0663  0.3068 -0.0185
12468PP      PP22572   7.863   8.954  12.539 -0.3961 -0.2429 -0.0017
12469PP      PP22573  10.057   4.817  10.277 -0.0778 -0.0807  0.0673
12470PP      PP22574   3.558  10.897   0.183 -0.0434  0.0105 -0.1002
12471PP      PP22575   8.241  10.210  12.490  0.2050 -0.1028  0.1839
12472PP      PP22576   2.300   1.552  11.911  0.1609  0.0586 -0.0878
12473PP      PP22577  14.961   7.938  13.518 -0.1375 -0.1152 -0.1464
12474PP      PP22578   2.093   8.361  12.814 -0.3016 -0.1327  0.2382
12475PP      PP22579  11.094  10.347   9.353  0.0566 -0.1260  0.2453
12476PP      PP22580   5.207   6.723   0.646  0.0881 -0.1814  0.2967
12477PP      PP22581   3.815  15.133  11.058  0.1353  0.2465 -0.2346
12478PP      PP22582  11.179   3.375  12.070  0.0120  0.1212  0.2051
12479PP      PP22583   6.617  13.414   3.865 -0.0728 -0.0168  0.2893
12480PP      PP22584   1.502   6.649   0.360 -0.0172 -0.0401 -0.1171
12481PP      PP22585  10.903   9.159  13.055 -0.1681 -0.2487 -0.2341
12482PP      PP22586  13.511   2.844   0.974  0.2370  0.2681  0.0213
12483PP      PP22587   9.990  15.548   4.839 -0.1608 -0.1606  0.2904
12484PP      PP22588   1.810   7.282   1.069 -0.1155 -0.1264  0.0378
12485PP      PP22589  14.754  11.954  11.269 -0.2893  0.1918 -0.0444
12486PP      PP22590   8.246   9.320   3.186  0.0094  0.1162 -0.0183
12487PP      PP22591   6.286  11.702  13.501 -0.4397  0.0374 -0.0007
12488PP      PP22592   1.009   0.912  11.692 -0.0565  0.2189  0.0271
12489PP      PP22593   2.350   8.254   2.878  0.5034 -0.0504  0.1248
12490PP      PP22594  12.456  10.159   3.475  0.0858  0.0357  0.3156
12491PP      PP22595  14.025   7.493   1.195 -0.3134  0.1659  0.2277
12492PP      PP22596  13.079   0.817   3.506 -0.1389 -0.2199 -0.2610
12493PP      PP22597   6.893   1.310   3.929  0.0797 -0.2772  0.0536
12494PP      PP22598  12.088   3.364   2.896 -0.0553  0.0495  0.3290
12495PP      PP22599  15.425   0.645   3.022 -0.0355  0.1598 -0.1286
12496PP      PP22600   1.704   9.168  13.186 -0.0218  0.2459  0.0513
12497PP      PP22601   5.963  10.909   4.133 -0.1318  0.0437  0.1052
12498PP      PP22602   2.402   6.386   9.453  0.0653  0.0352 -0.2850
12499PP      PP22603   6.800  12.264   0.783 -0.0602  0.2449  0.2016
12500PP      PP22604  15.797   8.728  12.650  0.0969 -0.0632 -0.0054
12501PP      PP22605   7.352  12.379  13.179 -0.1670  0.2008 -0.2583
12502PP      PP22606   8.967   5.525   9.374 -0.0316  0.2559 -0.0212
12503PP      PP22607  13.835  14.603   4.248 -0.0818 -0.0077  0.0089
12504PP      PP22608  14.146  11.695   2.927  0.1877 -0.1047  0.1125
12505PP      PP22609   0.102  12.966   1.129 -0.2454  0.2321  0.1274
12506PP      PP22610   4.122   8.479   3.173 -0.0263 -0.0195  0.3327
12507PP      PP22611  15.876   7.891   3.711  0.0055 -0.1357  0.2272
12508PP      PP22612  10.149   5.355   3.267  0.0465  0.0763  0.0625
12509PP      PP22613   4.311  13.204   4.214 -0.0426  0.1035 -0.0117
12510PP      PP22614   4.648   0.668   8.565 -0.2625 -0.0428  0.1144
12511PP      PP22615   0.385   3.370   3.098  0.2450  0.0042  0.2026
12512PP      PP22616  14.524  12.730   9.066 -0.0376 -0.1302 -0.0991
12513PP      PP22617   0.926  10.310  13.334 -0.2191  0.0306 -0.0391
12514PP      PP22618  14.564  13.500   1.983 -0.2147  0.0773 -0.2518
12515PP      PP22619   8.189   8.998   0.351  0.0313 -0.0125 -0.0757
12516PP      PP22620   6.962  10.872   0.768  0.0152  0.0192 -0.1491
12517PP      PP22621   0.255   1.341  12.226  0.0748  0.1059 -0.1001
12518PP      PP22622   6.424   6.860   9.346 -0.0431  0.1039  0.0512
12519PP      PP22623   3.250   6.886   0.642  0.0661 -0.0238  0.2109
12520PP      PP22624  12.187   9.734   7.887 -0.0581 -0.5504  0.1056
12521PP      PP22625   1.480   2.016   2.776  0.1943 -0.0733  0.1020
12522PP      PP22626   4.356   5.194  11.179 -0.1923  0.2248  0.1265
12523PP      PP22627   6.819  14.926   2.573  0.0699  0.1451  0.2410
12524PP      PP22628  12.059   5.243   8.592  0.2038 -0.1779 -0.1081
12525PP      PP22629   0.854  14.592   8.133  0.0181 -0.2398  0.1495
12526PP      PP22630   8.524   1.251   9.207  0.1420 -0.0544  0.2624
12527PP      PP22631   8.502   8.467   4.762 -0.1557 -0.2969 -0.2187
12528PP      PP22632   2.302  12.095   1.469 -0.1386 -0.1933 -0.0591
12529PP      PP22633   5.312  11.039  12.633 -0.3875  0.2596  0.1040
12530PP      PP22634  14.025  11.502   4.056  0.0320 -0.0278  0.2142
12531PP      PP22635   4.663  10.488   0.873  0.0389  0.1746  0.2314
12532PP      PP22636   0.559   7.766   9.937 -0.0752  0.2962 -0.4849
12533PP      PP22637   8.671   7.726   2.060  0.0175 -0.0006 -0.3180
12534PP      PP22638  12.578   1.122   9.858  0.0888  0.1042 -0.0324
12535PP      PP22639   1.730   1.055   0.569  0.3395  0.0362  0.0955
12536PP      PP22640   5.386   8.651   4.085 -0.0023 -0.1679 -0.0404
12537PP      PP22641   6.134   9.801  12.184 -0.4084 -0.0752  0.1283
12538PP      PP22642  15.786  12.681  11.022 -0.0138 -0.1455 -0.0805
12539PP      PP22643   0.812   1.672   9.646  0.0998  0.0170 -0.0754
12540PP      PP22644  10.133  11.137   1.478  0.0204  0.3285 -0.0545
12541PP      PP22645  12.176   8.886   9.595 -0.1226 -0.1395  0.3003
12542PP      PP22646  10.431   7.505   1.699 -0.1740 -0.4468  0.1297
12543PP      PP22647  13.761   7.999   9.293  0.1142 -0.0608 -0.1145
12544PP      PP22648   7.175  14.189   1.929 -0.1452  0.2962  0.3143
12545PP      PP22649  12.546   1.905  12.143  0.2891 -0.0552  0.1533
12546PP      PP22650  12.914   8.235  12.928  0.0245 -0.0230 -0.2893
12547PP      PP22651   2.638   9.054  12.595  0.0821  0.0203  0.0892
12548PP      PP22652   3.759   7.769  12.869  0.1470 -0.1485  0.0355
12549PP      PP22653  12.254  12.171   3.604  0.0867 -0.0449  0.0299
12550PP      PP22654   6.356   2.391   9.545  0.1328 -0.0667 -0.1132
12551PP      PP22655   4.686   0.143   0.387  0.0466  0.0495  0.0923
12552PP      PP22656  12.727   7.985   7.423 -0.2436 -0.0862  0.0564
12553PP      PP22657   5.131   3.756   9.300 -0.1882  0.0932 -0.2487
12554PP      PP22658  12.191   5.021   1.175  0.3511  0.3183 -0.1000
12555PP      PP22659   3.586  15.102  13.237  0.2125 -0.2612  0.2140
12556PP      PP22660   8.179  15.530  12.774  0.2320 -0.0609  0.0182
12557PP      PP22661   1.751   6.526  13.419 -0.1316  0.1477  0.0485
12558PP      PP22662   4.028   8.219  11.959 -0.0761 -0.0091  0.0403
12559PP      PP22663  14.904   6.428   0.678  0.1421  0.0962  0.1867
12560PP      PP22664   0.947  13.652   0.981 -0.1227  0.1472 -0.2843
12561PP      PP22665   7.191   0.312  11.269 -0.3380 -0.0741 -0.2389
12562PP      PP22666   7.226  11.002   0.203  0.0299 -0.2770 -0.3400
12563PP      PP22667  10.538  11.866   8.834 -0.2448 -0.3393  0.0876
12564PP      PP22668   4.369   6.584  13.024 -0.4681  0.1864  0.0330
12565PP      PP22669   2.391   7.498   2.158  0.1053 -0.1417  0.4756
12566PP      PP22670  11.564   7.079   2.670  0.2165  0.0892 -0.1380
12567PP      PP22671  10.971   3.151   9.974 -0.1218 -0.0368 -0.0678
12568PP      PP22672   4.921   2.913   3.993  0.2102  0.3634 -0.0860
12569PP      PP22673   9.217   6.293   8.634 -0.0231  0.2492 -0.0302
12570PP      PP22674   7.461  12.078   0.890  0.0671  0.0278  0.1107
12571PP      PP22675   4.835   7.574  10.169 -0.0722 -0.0019  0.3874
12572PP      PP22676   1.394   7.429   9.067 -0.1048 -0.2212 -0.0479
12573PP      PP22677   6.579  12.978  12.961 -0.1172  0.0709 -0.0979
12574PP      PP22678   6.985   8.118  12.402  0.1044 -0.0408  0.0597
12575PP      PP22679   5.158   6.149   2.963  0.1405 -0.0158  0.1042
12576PP      PP22680   8.954   5.791   9.830 -0.2090  0.2402 -0.2599
12577PP      PP22681   6.135  10.393  10.326 -0.0603  0.0610  0.0227
12578PP      PP22682   9.990   1.869   2.058 -0.1040 -0.0541 -0.1898
12579PP      PP22683   5.595   1.196   0.601 -0.2553 -0.4210  0.2961
12580PP      PP22684  12.422   7.853   0.485 -0.4508  0.1607 -0.0101
12581PP      PP22685   1.096   2.693  10.192  0.2590  0.0804 -0.0714
12582PP      PP22686  14.252   0.740   3.725  0.0271 -0.0828 -0.1563
12583PP      PP22687  14.725   4.020  12.448  0.0446  0.2548 -0.4131
12584PP      PP22688   6.973   1.901  11.747  0.2182 -0.0857  0.1009
12585PP      PP22689   4.143   1.829   2.719  0.0731 -0.0902 -0.3537
12586PP      PP22690   0.597   5.859   0.832  0.3062 -0.1999  0.1051
12587PP      PP22691   8.267   1.052  13.467  0.2829 -0.2193 -0.2187
12588PP      PP22692   6.619   2.392   3.125 -0.1925  0.2377 -0.1235
12589PP      PP22693   6.807   5.188   8.712 -0.2107  0.1902  0.2635
12590PP      PP22694   9.334   4.739   0.488 -0.2145 -0.1033  0.1679
12591PP      PP22695  14.307  12.938   2.861 -0.2110  0.0211 -0.0758
12592PP      PP22696  13.029   5.805   1.570 -0.0875  0.4400 -0.2271
12593PP      PP22697   1.395   9.606   0.055 -0.0057  0.2293  0.0363
12594PP      PP22698   1.459  15.607   0.342 -0.2198 -0.0809 -0.0144
12595PP      PP22699  14.738   7.930  10.794 -0.1858  0.1455 -0.1085
12596PP      PP22700  10.388   7.773   8.279 -0.0907  0.0208  0.0084
12597PP      PP22701  14.069  12.736   8.631  0.0658  0.1519 -0.1032
12598PP      PP22702  14.478   4.250   9.445 -0.6039  0.0412  0.0195
12599PP      PP22703  12.776   8.256   3.248 -0.2832 -0.2548 -0.3905
12600PP      PP22704  14.442  11.276   2.843  0.0620 -0.0513 -0.0578
12601PP      PP22705  11.345  13.984   2.683 -0.2003 -0.1074  0.0937
12602PP      PP22706   8.954   9.312   1.606 -0.2040  0.3493  0.1602
12603PP      PP22707   6.284  14.284   1.124  0.0215  0.1093 -0.0592
12604PP      PP22708   0.487   8.114  10.203  0.1273  0.0448 -0.0147
12605PP      PP22709   7.556   8.178   1.736  0.0679 -0.1247  0.0412
12606PP      PP22710  11.797  15.190   9.436 -0.0801  0.0855 -0.2781
12607PP      PP22711   2.174   7.660   9.526  0.0400 -0.0647  0.0211
12608PP      PP22712  12.682   9.621   0.798  0.1700 -0.0101 -0.0460
12609PP      PP22713   4.619  15.885   2.168  0.2500  0.0487 -0.3612
12610PP      PP22714   1.012  14.240   8.563  0.1878 -0.1381 -0.3605
12611PP      PP22715  11.261  10.744   3.680  0.4764 -0.1592  0.0880
12612PP      PP22716   7.756   4.687   1.966  0.1391 -0.0289  0.2955
12613PP      PP22717   5.730  10.203   2.398 -0.1423  0.2704 -0.1663
12614PP      PP22718   2.541   1.518   4.466 -0.0324  0.3669 -0.0734
12615PP      PP22719   9.444   5.738   9.441 -0.1693  0.2039  0.3302
12616PP      PP22720   1.946   7.971   0.142  0.2218  0.3161  0.3584
12617PP      PP22721   4.091  15.790   9.999 -0.1062 -0.2646 -0.1093
12618PP      PP22722   3.524   3.425  11.464  0.1084 -0.5041 -0.1402
12619PP      PP22723   8.015   0.956  12.775 -0.1218 -0.1574 -0.0020
12620PP      PP22724   0.599   3.730  13.298 -0.0048 -0.0573  0.3006
12621PP      PP22725  14.509   8.533   3.453 -0.0095 -0.0500 -0.0107
12622PP      PP22726  12.581   2.481   9.991  0.2207  0.2087 -0.2726
12623PP      PP22727   0.661   5.576   9.140 -0.1929 -0.0196  0.1486
12624PP      PP22728  13.123   4.077  10.786  0.1815 -0.2268  0.0496
12625PP      PP22729  11.307   1.079   4.787 -0.0118 -0.1126  0.0678
12626PP      PP22730  15.435  15.627   1.503  0.1633  0.0627 -0.0974
12627PP      PP22731   6.477   0.744  11.749  0.0061 -0.2229 -0.0089
12628PP      PP22732   9.780   3.003  10.785 -0.3273 -0.0273  0.1888
12629PP      PP22733   0.719   6.219   2.843  0.1778 -0.1345  0.2748
12630PP      PP22734   3.279   6.235  12.382  0.2592  0.1543 -0.2684
12631PP      PP22735   3.995   9.530   9.120  0.0103 -0.3264 -0.1882
12632PP      PP22736  11.921   2.104   4.663  0.2027  0.1912 -0.2090
12633PP      PP22737  15.207  13.620  11.535  0.2767  0.1920  0.2124
12634PP      PP22738   3.203   2.134   3.675 -0.0141  0.1061 -0.1606
12635PP      PP22739   2.558   1.848   1.143 -0.0849  0.0296  0.1811
12636PP      PP22740   3.103  10.622   1.428  0.1400  0.1238 -0.1023
12637PP      PP22741  14.559  13.854   4.472 -0.4608 -0.0705  0.2935
12638PP      PP22742   9.838   8.298   0.806 -0.1892 -0.1705  0.0885
12639PP      PP22743   8.604   0.662   3.693  0.1170  0.0982  0.2740
12640PP      PP22744   4.939   3.773   1.135 -0.1959 -0.1761 -0.0954
12641PP      PP22745  14.520  11.557   9.961 -0.1729  0.2037  0.3282
12642PP      PP22746   9.900   4.685  12.665  0.3206 -0.0798  0.0739
12643PP      PP22747  11.780  10.275   1.905 -0.1350  0.2383 -0.0392
12644PP      PP22748  10.285   5.499  11.467 -0.2177 -0.0056 -0.4151
12645PP      PP22749   0.070   9.683   1.853  0.0410 -0.1803  0.3042
12646PP      PP22750  10.531   1.600   3.658 -0.0239 -0.2285  0.3930
12647PP      PP22751   2.219   5.992   9.759 -0.0603 -0.3494 -0.3020
12648PP      PP22752   2.806   4.162  10.104  0.0424  0.1762 -0.0645
12649PP      PP22753  11.626   2.201   1.977 -0.0962 -0.4435  0.0185
12650PP      PP22754   7.045   1.334  11.768 -0.0301  0.1228  0.2879
12651PP      PP22755  12.581  14.889   2.914  0.0758 -0.0420 -0.2394
12652PP      PP22756   3.705   5.329   8.471 -0.2058 -0.0698  0.0233
12653PP      PP22757  14.411   6.322   0.573 -0.0295 -0.1067  0.4591
12654PP      PP22758  11.534  12.119  10.148 -0.1275 -0.0721 -0.1600
12655PP      PP22759   9.363   8.402   1.096 -0.2605 -0.1297  0.0986
12656PP      PP22760   9.972  13.703   3.172 -0.1656 -0.0177  0.0031
12657PP      PP22761  14.202   4.745  10.099 -0.1343 -0.0612 -0.5225
12658PP      PP22762  15.110   2.901   1.002  0.1642  0.0337 -0.3041
12659PP      PP22763   8.388   3.758   9.646  0.0223 -0.1796 -0.1048
12660PP      PP22764   8.534   5.049  10.569  0.2411  0.3906 -0.2294
12661PP      PP22765   9.280  15.520  10.146  0.0378 -0.0547 -0.0541
12662PP      PP22766  13.805   9.696   9.455  0.0456 -0.0647 -0.3620
12663PP      PP22767  10.741   4.528   8.784 -0.1009 -0.0612 -0.0765
12664PP      PP22768   2.104  11.195  12.720 -0.0038 -0.1544  0.0950
12665PP      PP22769  13.576  15.044   2.029 -0.0129 -0.1549  0.0602
12666PP      PP22770   2.220  13.172  11.366 -0.1261 -0.0889  0.1722
12667PP      PP22771   1.478  11.979   3.578  0.1433 -0.0851  0.0409
12668PP      PP22772  14.524   8.329  11.866  0.0150  0.0811 -0.1626
12669PP      PP22773  11.738   8.871   9.842  0.0259 -0.0179 -0.1704
12670PP      PP22774   3.072  13.931   1.140 -0.3290 -0.1173  0.1619
12671PP      PP22775   2.623  10.104   2.099 -0.5598 -0.1816 -0.1497
12672PP      PP22776   1.498  10.477   3.684 -0.1099 -0.1242 -0.1439
12673PP      PP22777  10.697   3.144   4.029 -0.1455  0.0119  0.0242
12674PP      PP22778   5.986   9.619   9.235  0.0694  0.0824 -0.2418
12675PP      PP22779   3.644   3.880   0.783  0.0964 -0.1041  0.1346
12676PP      PP22780  15.776  13.208  12.561 -0.2653 -0.0683  0.2592
12677PP      PP22781   4.060   5.353   0.108 -0.0258 -0.1206 -0.1459
12678PP      PP22782   2.752  12.608  10.854 -0.2531  0.2433 -0.0746
12679PP      PP22783   0.856   4.404   1.667 -0.4450 -0.4198  0.0555
12680PP      PP22784   1.962   4.334  10.139  0.0456  0.0470 -0.1033
12681PP      PP22785   7.253   0.309   4.215  0.0110 -0.0503 -0.0965
12682PP      PP22786   4.870  12.632  10.535  0.1869  0.0950 -0.2123
12683PP      PP22787   5.902  11.552  13.094  0.0014  0.1876 -0.1816
12684PP      PP22788  10.450   1.968   2.241  0.3945  0.0657  0.0582
12685PP      PP22789   0.509   8.867   1.712  0.0515  0.1084 -0.0401
12686PP      PP22790  10.376   9.450   0.154 -0.0742  0.1726 -0.1008
12687PP      PP22791  13.278   1.500   2.803 -0.0996  0.3823  0.4217
12688PP      PP22792   9.204   1.253   3.191 -0.0787 -0.1897  0.3602
12689PP      PP22793   9.979  12.241  10.314  0.1634 -0.1564  0.0614
12690PP      PP22794   6.395   7.644  11.678 -0.1076 -0.2477 -0.0781
12691PP      PP22795   9.815   1.033  12.765 -0.1340 -0.2376  0.1199
12692PP      PP22796  10.494   0.923  10.250 -0.1781 -0.2493 -0.2137
12693PP      PP22797  12.913  11.633   3.763 -0.2039 -0.2363 -0.0306
12694PP      PP22798   2.189   2.784  10.560  0.0953  0.1648 -0.3119
12695PP      PP22799  14.459  12.924   0.002 -0.2819  0.0015  0.1163
12696PP      PP22800  10.495   0.811  11.222 -0.2624 -0.3339  0.1595
12697PP      PP22801  10.199   8.508  11.291  0.0490  0.3627 -0.0586
12698PP      PP22802   8.490  15.391   0.128 -0.0547  0.1756 -0.2932
12699PP      PP22803   4.066   9.206   8.462  0.0670 -0.1155 -0.1736
12700PP      PP22804   4.338  12.147   9.388  0.1950 -0.1267 -0.0590
12701PP      PP22805   9.165   7.801  11.841  0.1891 -0.1521  0.0801
12702PP      PP22806   3.132  13.931   0.486  0.3207  0.2399 -0.4921
12703PP      PP22807   1.480   3.149  12.231  0.0629  0.2636  0.1244
12704PP      PP22808  13.296   8.992  11.104  0.0131  0.2652 -0.1368
12705PP      PP22809  11.749  14.525  11.721  0.0636 -0.1256  0.1376
12706PP      PP22810   1.521   3.560  13.003  0.0739 -0.1118  0.2645
12707PP      PP22811   0.516   0.914   0.422 -0.1400  0.3147  0.0463
12708PP      PP22812   1.567  10.037  11.028 -0.1715  0.0211 -0.4958
12709PP      PP22813   5.915  13.121   1.798 -0.0914  0.2222 -0.3665
12710PP      PP22814   8.027   2.705   9.878  0.0792 -0.3047  0.0553
12711PP      PP22815   9.211  11.115   0.912  0.0607 -0.0949 -0.2064
12712PP      PP22816   6.350  11.942   4.510 -0.0358  0.1317 -0.0038
12713PP      PP22817   1.551  13.857  12.660 -0.3795 -0.0677 -0.1688
12714PP      PP22818   6.681  15.637  11.384  0.0896  0.0327 -0.1089
12715PP      PP22819  12.248  11.986   4.731 -0.1037 -0.2719 -0.0660
12716PP      PP22820   9.959   0.434  13.157 -0.3688  0.1556 -0.4436
12717PP      PP22821   3.218  15.412  13.256 -0.1367 -0.3629 -0.2501
12718PP      PP22822  13.612  14.831   9.685  0.0309  0.4152 -0.0614
12719PP      PP22823  11.613   4.530  12.011  0.0384 -0.0353  0.2995
12720PP      PP22824   9.922   2.995   0.388  0.0748 -0.3162 -0.1125
12721PP      PP22825   9.675   2.688  11.284 -0.1352  0.1805 -0.2003
12722PP      PP22826   3.428  12.356  13.142 -0.0574 -0.1184 -0.1175
12723PP      PP22827   6.767   7.332   8.596 -0.4910 -0.0524  0.0016
12724PP      PP22828   8.055   6.910  10.765 -0.1341 -0.1123 -0.0108
12725PP      PP22829   9.587   2.430   3.145 -0.2606 -0.2526 -0.0294
12726PP      PP22830   9.535   1.946   3.729  0.0781 -0.1070 -0.2807
12727PP      PP22831   2.734  12.337   4.352  0.4196 -0.5885  0.0721
12728PP      PP22832  14.514   6.832   8.291  0.5244 -0.2390  0.1789
12729PP      PP22833  15.407   3.440   9.165  0.0289 -0.3060 -0.0502
12730PP      PP22834   4.380   9.176   0.436 -0.1921 -0.2964 -0.0259
12731PP      PP22835   6.145   2.488  12.770 -0.2111  0.2002 -0.2404
12732PP      PP22836   9.432  14.273  10.682 -0.0487  0.3068  0.3383
12733PP      PP22837  15.812   8.923  13.085  0.2435  0.1977  0.0291
12734PP      PP22838   4.840   1.857   9.990 -0.1666 -0.1133  0.0923
12735PP      PP22839   8.954   7.972  10.338  0.1300 -0.1118  0.2066
12736PP      PP22840   7.504  15.454   4.604  0.0014 -0.4177 -0.1152
12737PP      PP22841  12.439  10.832  10.863  0.1937  0.2961 -0.3504
12738PP      PP22842  11.445   7.013   0.225 -0.0668 -0.1133 -0.0426
12739PP      PP22843   1.410  13.484   3.445 -0.2469 -0.1102 -0.0349
12740PP      PP22844   4.922   8.554  12.350 -0.0366 -0.1234 -0.1362
12741PP      PP22845   1.049   9.803  12.065  0.1157 -0.2155  0.1346
12742PP      PP22846   9.507   9.484   3.965 -0.0521  0.0310 -0.0081
12743PP      PP22847  10.103  14.120   0.283  0.0090  0.0008  0.0329
12744PP      PP22848  14.308  11.799   9.132  0.1459  0.0256 -0.1841
12745PP      PP22849  14.026   8.928   9.573  0.3301  0.1296  0.0192
12746PP      PP22850  14.408  10.403   2.879  0.0992 -0.1914 -0.3913
12747PP      PP22851   4.100  11.832  13.275  0.0110  0.1113 -0.3107
12748PP      PP22852   5.439   3.530   0.443 -0.0584 -0.0996  0.3945
12749PP      PP22853  12.088  12.096   1.711  0.0565 -0.0977  0.1095
12750PP      PP22854  13.883   4.766   2.483 -0.1040 -0.0087  0.1798
12751PP      PP22855  10.711   1.309  11.208 -0.0259 -0.1617 -0.0427
12752PP      PP22856   3.425   2.792   4.099 -0.0065 -0.0682  0.1452
12753PP      PP22857   8.672   3.565   2.927 -0.2757  0.0813 -0.2111
12754PP      PP22858   1.984   0.863   9.267  0.2574 -0.3474  0.0461
12755PP      PP22859  14.863   3.398  11.428  0.0324  0.1123 -0.1762
12756PP      PP22860  14.608   0.307  13.317 -0.0630  0.1446  0.1896
12757PP      PP22861  15.821   6.160   0.818  0.2859  0.0399  0.0174
12758PP      PP22862  14.918   1.777  11.354 -0.0283  0.1772  0.0205
12759PP      PP22863   2.869   4.747  11.585  0.0411  0.0163  0.2264
12760PP      PP22864  15.669   2.204   9.082  0.0383 -0.4830 -0.0697
12761PP      PP22865   4.221  14.317  12.963 -0.1371  0.0522 -0.0794
12762PP      PP22866   4.145  14.954   9.713 -0.3433 -0.1268 -0.0292
12763PP      PP22867  13.201  13.694   0.379  0.0911 -0.2438  0.0584
12764PP      PP22868  14.938  15.733   9.832  0.2038 -0.0743  0.2835
12765PP      PP22869   9.612   9.825   2.049  0.1843  0.0508 -0.6935
12766PP      PP22870   8.379   2.893   1.380  0.0591  0.2187 -0.3253
12767PP      PP22871  14.561   8.450  10.769 -0.0526  0.1335 -0.1873
12768PP      PP22872   7.275  10.735   1.264  0.1551  0.1231 -0.1800
12769PP      PP22873  13.139  13.608   1.383 -0.2376  0.2841 -0.0544
12770PP      PP22874   7.666  14.078  10.130  0.0069  0.2571 -0.1342
12771PP      PP22875  14.087  14.998   9.898  0.2804 -0.1026 -0.0092
12772PP      PP22876   6.747   6.483  13.174  0.0954 -0.1912 -0.2748
12773PP      PP22877   2.934   1.658   2.235 -0.1167  0.1586  0.3892
12774PP      PP22878   0.002   1.864   4.313 -0.1195  0.0684 -0.1069
12775PP      PP22879   7.041   0.398  10.812  0.3488  0.2303 -0.0361
12776PP      PP22880  10.875  15.852   0.779 -0.0347 -0.3086  0.1453
12777PP      PP22881   2.346   7.183  10.765 -0.0517  0.0076 -0.1197
12778PP      PP22882   4.327  14.550   1.953  0.1760  0.0080  0.1526
12779PP      PP22883  10.982  12.459   0.573 -0.0889 -0.2924  0.2830
12780PP      PP22884  12.570   3.763   0.190  0.0189 -0.0373 -0.0755
12781PP      PP22885   9.932   5.135   2.606 -0.1510  0.0699 -0.1200
12782PP      PP22886   3.096   5.255  12.421 -0.0842  0.3756  0.0270
12783PP      PP22887  10.528  15.099   9.327  0.1693  0.1213 -0.2346
12784PP      PP22888  10.239   3.465   3.968  0.1336  0.0623  0.1723
12785PP      PP22889   1.453   6.673   9.477  0.2639  0.1458  0.0465
12786PP      PP22890   8.222   9.741   9.982 -0.2364  0.2017  0.2264
12787PP      PP22891  11.898  14.374   3.436 -0.2665  0.3002  0.1029
12788PP      PP22892   1.359  15.818  11.285  0.2015 -0.1946  0.1665
12789PP      PP22893   8.751   2.170   2.399 -0.1327 -0.0174  0.1175
12790PP      PP22894   4.417   3.458  10.881  0.2410 -0.0664  0.1871
12791PP      PP22895  10.090   1.902  10.477  0.3164 -0.1585  0.1885
12792PP      PP22896  12.617   7.707  13.005 -0.0708 -0.1622  0.1682
12793PP      PP22897   8.455   1.938   1.637 -0.0834 -0.0006  0.0952
12794PP      PP22898   4.003  11.357  13.425  0.3632 -0.1614 -0.0534
12795PP      PP22899   9.391   7.582  12.430 -0.0247  0.0280  0.0045
12796PP      PP22900   6.729   4.466   1.383 -0.0053 -0.0877  0.1058
12797PP      PP22901   8.390   7.938   3.530  0.1706 -0.3415  0.0402
12798PP      PP22902   5.563  14.600   5.082 -0.1470  0.0697 -0.0096
12799PP      PP22903   0.961   2.225   9.753  0.0091 -0.0440 -0.0980
12800PP      PP22904   6.328   1.874   0.972 -0.1779  0.4098 -0.0558
12801PP      PP22905   2.418   3.016  11.845 -0.2837  0.0365 -0.1197
12802PP      PP22906  15.060   4.709   1.427 -0.0279 -0.0043 -0.0408
12803PP      PP22907  10.104   9.205   9.504  0.2188 -0.0178 -0.1455
12804PP      PP22908   3.578   8.790  10.861  0.0908  0.0732  0.0229
12805PP      PP22909   6.697   6.978  10.629  0.1873  0.2580  0.0416
12806PP      PP22910  10.161   5.120   1.461  0.1467 -0.1405 -0.2688
12807PP      PP22911   0.510  14.824  11.180  0.0854  0.3228 -0.0978
12808PP      PP22912   9.474  12.862   2.579 -0.2429  0.0117 -0.0313
12809PP      PP22913  15.410   0.822  11.787 -0.0532 -0.2901 -0.6951
12810PP      PP22914  12.141   4.755  10.112 -0.0614 -0.3793  0.1767
12811PP      PP22915   5.707   5.358   3.619  0.0485  0.1270  0.1787
12812PP      PP22916  11.854   6.339  12.490  0.2078  0.1645  0.0078
12813PP      PP22917   6.234   0.590   1.819 -0.2732  0.1112 -0.1371
12814PP      PP22918  10.225   6.565   1.639 -0.0250  0.0784  0.0475
12815PP      PP22919  11.961   0.076   0.149 -0.2011 -0.1769  0.2194
12816PP      PP22920   1.431   2.286   9.984 -0.0199 -0.0833  0.0409
12817PP      PP22921   9.405   7.319   0.955  0.4165 -0.0986 -0.0733
12818PP      PP22922   4.871   2.223   1.011 -0.0952 -0.2073  0.1559
12819PP      PP22923  15.313   7.565  12.806  0.1375 -0.2851  0.1523
12820PP      PP22924   4.650   7.393  11.577  0.1144 -0.0738  0.0345
12821PP      PP22925  14.551  12.277   3.571 -0.1729 -0.1232  0.0353
12822PP      PP22926  14.996   7.489  13.225 -0.1318  0.0230 -0.0421
12823PP      PP22927  15.022  13.669   3.685 -0.1038 -0.0147  0.3579
12824PP      PP22928  15.027  14.956   9.224 -0.0505 -0.4805 -0.1539
12825PP      PP22929  10.518   8.678  12.291  0.0266  0.2294  0.2086
12826PP      PP22930   5.237   1.365   9.034  0.0370 -0.0915  0.0248
12827PP      PP22931   7.831   3.565   1.926 -0.3149 -0.0359  0.0226
12828PP      PP22932   7.819   3.428   3.321 -0.1960 -0.1561  0.2894
12829PP      PP22933   2.599   4.291   1.052  0.1510  0.1031  0.0157
12830PP      PP22934   1.778  11.523   3.671  0.1808  0.0614 -0.1222
12831PP      PP22935  13.976   0.348   0.016  0.0966  0.0216  0.1997
12832PP      PP22936  15.227   5.542   2.259 -0.2961  0.1210 -0.1933
12833PP      PP22937   6.582   5.351  10.099 -0.0444  0.0261  0.2089
12834PP      PP22938  14.197  11.627  13.207  0.3303  0.2877 -0.1148
12835PP      PP22939   2.469   0.160   3.540 -0.0448  0.2079 -0.0455
12836PP      PP22940   3.576   7.650  10.479  0.0796  0.0035 -0.1857
12837PP      PP22941  10.517   1.716  10.372 -0.1267 -0.4909 -0.5162
12838PP      PP22942  15.755  13.203   9.474 -0.0181  0.1727  0.1675
12839PP      PP22943   5.138   3.326   1.206 -0.1184  0.0155 -0.0513
12840PP      PP22944  13.647  12.312   2.953  0.0660 -0.0101 -0.0177
12841PP      PP22945   3.043   8.203   1.024  0.1494  0.1508  0.0765
12842PP      PP22946  13.780   4.443  12.649  0.1824  0.0317 -0.1506
12843PP      PP22947   1.740   2.510  13.370 -0.0672 -0.0731  0.0047
12844PP      PP22948   4.060  10.414  13.457 -0.1859  0.3552 -0.0669
12845PP      PP22949  14.309   6.789   9.948  0.1549 -0.0030 -0.0051
12846PP      PP22950   9.303  15.515  12.976 -0.0958  0.1105  0.1741
12847PP      PP22951   0.514   2.238  13.064  0.1051 -0.0910  0.2030
12848PP      PP22952   0.251   3.882   8.934  0.0484  0.2710  0.2460
12849PP      PP22953   0.859  10.906   0.419 -0.1754 -0.2273  0.1333
12850PP      PP22954   2.054   9.554  12.932  0.0415  0.2321 -0.1159
12851PP      PP22955   7.196  14.051  10.518 -0.0096  0.0271 -0.1657
12852PP      PP22956   2.262   4.308  12.394 -0.0776 -0.2697  0.2071
12853PP      PP22957  10.134  11.846   0.741 -0.1598  0.3549  0.0369
12854PP      PP22958   5.784  10.181  11.403  0.0235 -0.1289 -0.1763
12855PP      PP22959   6.258  14.872   8.462 -0.3094  0.0037  0.3058
12856PP      PP22960  15.720  11.604   0.229  0.1201  0.0407  0.2224
12857PP      PP22961   9.018   2.015   0.437 -0.0395 -0.1614  0.0195
12858PP      PP22962   6.784  14.542  12.232  0.0506 -0.3843 -0.0513
12859PP      PP22963   9.446  14.452  12.965 -0.1210  0.0807  0.0854
12860PP      PP22964   6.929  13.030   1.706  0.2195  0.3459  0.0422
12861PP      PP22965  10.487   0.461   3.204  0.1472 -0.3392  0.0635
12862PP      PP22966   6.025  12.977   9.940  0.2236 -0.0887 -0.0228
12863PP      PP22967   8.689   9.542  13.394 -0.2612 -0.0566 -0.2198
12864PP      PP22968  10.548  10.268   1.640  0.0132 -0.0479 -0.2838
12865PP      PP22969  12.896   3.851  12.760 -0.1817 -0.2792  0.2989
12866PP      PP22970   4.079   7.301   2.346  0.0256  0.0116  0.1685
12867PP      PP22971   8.223   4.898   3.318 -0.0444 -0.1098 -0.1242
12868PP      PP22972   7.772   0.317   3.945  0.4650  0.2625  0.3559
12869PP      PP22973   9.228   7.387   8.999 -0.1876 -0.1355 -0.2885
12870PP      PP22974   5.415   7.425   9.712 -0.3503  0.2199  0.3681
12871PP      PP22975  14.745   8.515  12.274  0.2643  0.0830 -0.2425
12872PP      PP22976   6.656  12.884   2.143 -0.0935 -0.1042  0.0140
12873PP      PP22977   5.677   2.901  12.720 -0.0219 -0.0527  0.5180
12874PP      PP22978   7.062   6.151   9.043 -0.1775 -0.1973 -0.0448
12875PP      PP22979  10.992   9.906   2.235 -0.0993 -0.0856  0.2175
12876PP      PP22980   7.968  10.386   4.571 -0.1547  0.0429 -0.1202
12877PP      PP22981   0.686  11.757   2.159  0.2711  0.2062  0.2017
12878PP      PP22982  15.430   4.185   2.215  0.0910  0.1200 -0.0228
12879PP      PP22983   8.288   6.531  12.141 -0.2075  0.1396  0.3871
12880PP      PP22984  13.480   6.546   9.869  0.1330  0.1400 -0.4148
12881PP      PP22985  14.313  11.195  11.255 -0.1485  0.2917 -0.0796
12882PP      PP22986   4.475   8.900   4.830 -0.2168 -0.0561  0.4257
12883PP      PP22987   9.903   8.467   9.051  0.1307 -0.2340 -0.2047
12884PP      PP22988   6.077   7.513  12.104  0.2077  0.0194  0.0928
12885PP      PP22989   7.009   8.413   4.369  0.1363 -0.0357 -0.0719
12886PP      PP22990   6.156   1.123   1.652 -0.0530  0.4054  0.1792
12887PP      PP22991  12.936   3.363   9.174  0.0968 -0.1655 -0.2606
12888PP      PP22992  12.641   0.700   1.354 -0.1103 -0.1024  0.0996
12889PP      PP22993   2.533  12.892   2.688 -0.1145 -0.3019 -0.2873
12890PP      PP22994  12.382   5.226   9.580 -0.0837 -0.1070 -0.0707
12891PP      PP22995  14.365   1.506  10.094  0.3680  0.3894 -0.0619
12892PP      PP22996   4.900   3.962  11.969  0.1474 -0.3339 -0.1632
12893PP      PP22997   6.448   3.196  12.504 -0.2073  0.2633  0.3632
12894PP      PP22998   1.366  10.840   1.060 -0.2526  0.0196  0.0203
12895PP      PP22999   8.881   0.865  12.639 -0.2389 -0.0941  0.2217
12896PP      PP23000   6.968   4.133  11.526  0.0196  0.0384  0.2785
12897PP      PP23001   9.293   2.087   3.360 -0.0118 -0.0760 -0.1598
12898PP      PP23002   4.482   7.425   1.436 -0.3140  0.3480  0.0267
12899PP      PP23003   4.894  12.415   1.262 -0.0109 -0.0318  0.1665
12900PP      PP23004  13.935  15.484   1.217  0.0539 -0.2182 -0.3268
12901PP      PP23005  13.275   6.279  12.014  0.1617  0.3206 -0.1252
12902PP      PP23006   2.066   2.859   9.490 -0.1127 -0.0672 -0.0943
12903PP      PP23007  11.191   4.087  12.149 -0.1866  0.1434  0.2629
12904PP      PP23008   0.987   4.057  13.183 -0.2546 -0.0885 -0.0110
12905PP      PP23009   8.114   2.173   4.756 -0.1579  0.0032  0.2544
12906PP      PP23010  11.067  10.296  10.564  0.3933  0.1413 -0.1389
12907PP      PP23011  15.145   5.453   0.184 -0.2466 -0.1888  0.1121
12908PP      PP23012  15.528   4.092  11.168 -0.0934 -0.0345  0.1541
12909PP      PP23013  10.121   0.137   3.063 -0.0569 -0.0112 -0.0968
12910PP      PP23014   0.375   4.130  11.989  0.0079  0.0917 -0.0344
12911PP      PP23015   3.874   1.101   0.405  0.1374  0.1155 -0.0496
12912PP      PP23016   8.891   6.515   0.622  0.0111  0.1426  0.1824
12913PP      PP23017  11.125   6.384   7.332 -0.1495  0.3781 -0.1915
12914PP      PP23018   0.324  12.379   0.803  0.0695 -0.1399  0.2374
12915PP      PP23019  13.701  15.079  11.340 -0.0716  0.1735 -0.1809
12916PP      PP23020   7.093   4.802  10.518  0.0624  0.0028 -0.1989
12917PP      PP23021   1.455  11.103  12.277  0.1221 -0.3308  0.0712
12918PP      PP23022   5.422   5.373  13.144 -0.0406 -0.2321  0.0233
12919PP      PP23023   8.497  11.672   1.283 -0.2919  0.0709 -0.0620
12920PP      PP23024  14.479  12.892   4.767  0.2676 -0.2015  0.1870
12921PP      PP23025  11.144   0.555  10.179 -0.0983  0.0036 -0.4141
12922PP      PP23026  13.185   4.575   8.497 -0.1265  0.0032  0.0465
12923PP      PP23027   9.392   9.792   8.918  0.0897  0.3622  0.2192
12924PP      PP23028   9.237   1.136  11.988 -0.0261  0.0647  0.4069
12925PP      PP23029  14.970  14.682   0.073  0.0017  0.0199 -0.0204
12926PP      PP23030  14.891  14.661   2.381 -0.1178  0.0636 -0.0163
12927PP      PP23031   1.423   0.384   3.308  0.2505 -0.0731  0.0102
12928PP      PP23032   3.698   6.455  12.601  0.0175 -0.0394 -0.1909
12929PP      PP23033   7.870  11.846   0.714  0.2239  0.0544 -0.1650
12930PP      PP23034   5.817   4.258  13.304  0.0512  0.0594  0.0146
12931PP      PP23035   3.903   1.919   4.508  0.3387 -0.4670  0.1132
12932PP      PP23036  12.174  13.082   9.503 -0.1762 -0.0850  0.4361
12933PP      PP23037  11.902   0.383   9.181  0.2096  0.2489 -0.2646
12934PP      PP23038   2.249   7.939   8.750  0.1926  0.2487 -0.0254
12935PP      PP23039  14.472  14.517  12.315  0.0375 -0.0361 -0.1834
12936PP      PP23040   6.576   3.558  13.008 -0.3063  0.0670 -0.0327
12937PP      PP23041   6.394   7.278   0.571  0.3770  0.1636  0.3974
12938PP      PP23042   9.311   0.524  13.257  0.0571 -0.1021 -0.1245
12939PP      PP23043   0.387   3.836  11.146  0.2569  0.0661  0.2400
12940PP      PP23044  13.641  13.832   3.737  0.0930  0.0519 -0.1414
12941PP      PP23045  10.181   9.231  10.720 -0.0810  0.1493 -0.0628
12942PP      PP23046   3.126  15.396   9.978  0.1021  0.0278  0.0616
12943PP      PP23047  14.398   3.475   1.119 -0.0587  0.2229 -0.1970
12944PP      PP23048   0.236   0.484  13.094 -0.1132 -0.2546 -0.0683
12945PP      PP23049   6.472  11.920   9.936  0.0507 -0.1821  0.0908
12946PP      PP23050  15.127   6.663  11.697  0.0711  0.0316  0.0558
12947PP      PP23051   2.504   6.195  11.048  0.1278  0.0004 -0.0538
12948PP      PP23052  10.031  13.917  11.401  0.1472  0.1991 -0.2088
12949PP      PP23053   8.157   6.089  12.239 -0.0785 -0.0344 -0.0612
12950PP      PP23054   7.681   0.104   4.654  0.1489 -0.2689  0.1174
12951PP      PP23055   7.151   9.361   0.279  0.2159  0.2922  0.1941
12952PP      PP23056   2.615  10.727   0.783 -0.0867 -0.1201 -0.1248
12953PP      PP23057   8.756  11.081   0.114 -0.1691 -0.2052 -0.0749
12954PP      PP23058   1.422   1.317  10.745 -0.0100 -0.1525  0.0052
12955PP      PP23059   3.342   3.059  11.673  0.0597 -0.2345 -0.0790
12956PP      PP23060  13.268  13.018  12.539 -0.0851  0.1874  0.3733
12957PP      PP23061   3.260   5.712   8.494 -0.0282  0.1805  0.2688
12958PP      PP23062   1.849  10.838   1.256  0.3073  0.1564  0.3769
12959PP      PP23063   8.894  15.076   2.089  0.0412  0.2463 -0.2166
12960PP      PP23064  12.580  12.778   2.999 -0.1922  0.1405  0.2890
12961PP      PP23065  15.445  15.183   9.020 -0.1514  0.0071 -0.0291
12962PP      PP23066  11.235  12.886   1.443  0.0469  0.2342  0.2509
12963PP      PP23067   8.494   2.371   5.066  0.1011 -0.1451  0.3440
12964PP      PP23068  10.898  11.966   3.761 -0.2839 -0.0648 -0.1135
12965PP      PP23069  14.554  15.237   4.128 -0.0196 -0.0667 -0.0005
12966PP      PP23070   0.324   7.473   3.707  0.2137 -0.1397  0.0729
12967PP      PP23071   0.963  15.646   2.058  0.0134  0.1555 -0.0315
12968PP      PP23072  15.151   3.999   3.546 -0.2805  0.2363  0.1238
12969PP      PP23073  12.958   4.268   0.198 -0.1390 -0.1394 -0.1434
12970PP      PP23074  13.033   0.063   0.740 -0.0163  0.0100  0.0633
12971PP      PP23075   3.518   8.557   2.232  0.0257 -0.0740  0.0064
12972PP      PP23076   8.318   7.709   0.963 -0.0522 -0.2810 -0.1653
12973PP      PP23077  14.634   1.200  10.620  0.1700  0.1106 -0.3433
12974PP      PP23078  15.828   3.206  10.666 -0.0626 -0.1788  0.3187
12975PP      PP23079  11.206  10.859   2.567  0.2252 -0.0603 -0.2400
12976PP      PP23080  15.801   6.170  11.406 -0.2404  0.1364  0.0291
12977PP      PP23081  12.456   5.501  10.270  0.3171  0.0744 -0.1949
12978PP      PP23082  13.475   1.544   1.310 -0.2802  0.2300 -0.0787
12979PP      PP23083   2.963   5.911   3.605 -0.0752 -0.2035  0.2152
12980PP      PP23084   1.707   7.340  10.286 -0.2707 -0.2454  0.0540
12981PP      PP23085   9.545   2.957   3.892 -0.1141  0.0168 -0.1861
12982PP      PP23086   0.350   6.804   8.413  0.0589  0.1347  0.0594
12983PP      PP23087   3.300   3.548  12.011 -0.2309  0.0577 -0.0026
12984PP      PP23088  14.818  13.297   1.578 -0.4146  0.1208  0.1262
12985PP      PP23089  15.089   9.803   1.457  0.0694 -0.3029  0.2787
12986PP      PP23090  14.751   5.657  11.265 -0.0501 -0.0561  0.1450
12987PP      PP23091   0.343   0.743   9.452 -0.0420  0.2153 -0.0664
12988PP      PP23092   9.413  14.683  10.366 -0.0197 -0.0552  0.2320
12989PP      PP23093   4.551   4.994   1.118 -0.0554  0.1952 -0.0859
12990PP      PP23094  12.412   3.690   3.071  0.1428  0.1688 -0.1299
12991PP      PP23095  13.388   2.770   2.565 -0.0811 -0.0196 -0.2547
12992PP      PP23096   4.718   1.071  10.749  0.0543  0.0854  0.2034
12993PP      PP23097   3.465   7.575   3.303  0.0696 -0.1412  0.0055
12994PP      PP23098   9.537   7.931   2.031  0.0621  0.0155 -0.0154
12995PP      PP23099   2.128   7.051   2.046  0.2042 -0.1711  0.0804
12996PP      PP23100   6.274   3.729  10.635 -0.1387  0.0696  0.3168
12997PP      PP23101   5.864   9.016  10.980 -0.0406  0.0227 -0.0903
12998PP      PP23102   5.696   4.977  10.604 -0.0896  0.2844  0.2080
12999PP      PP23103   6.520   6.915   3.089 -0.0818  0.3596 -0.0353
13000PP      PP23104  15.299   1.287   9.926  0.0155 -0.0471 -0.0940
13001PP      PP23105  14.689  15.539  11.722 -0.2294 -0.4498 -0.1347
13002PP      PP23106   2.230  13.590  11.012  0.3179  0.1859 -0.3995
13003PP      PP23107  12.724   7.108  11.697 -0.0014 -0.0195  0.2628
13004PP      PP23108   6.133   1.018  11.002 -0.0723  0.3450 -0.1290
13005PP      PP23109   6.015   8.688  11.563 -0.0493 -0.1296  0.1675
13006PP      PP23110   9.462   7.220   3.640 -0.1297  0.0195  0.1063
13007PP      PP23111   1.457   6.492  12.419  0.2046  0.1951  0.2548
13008PP      PP23112   9.008   9.350   0.212 -0.0987 -0.0797  0.1069
13009PP      PP23113   1.653  10.083   2.679 -0.2185 -0.1432  0.2339
13010PP      PP23114   9.392  11.356  12.267 -0.0331  0.0099 -0.1885
13011PP      PP23115  15.327  11.089   2.840  0.2038 -0.0863  0.2303
13012PP      PP23116   3.714   7.244   3.628 -0.1281  0.1363 -0.1822
13013PP      PP23117   2.110   6.806   0.321  0.2353  0.1372  0.0301
13014PP      PP23118   8.317   4.556   2.969 -0.1298 -0.2642  0.0024
13015PP      PP23119  15.107  12.076  10.929 -0.1468  0.0345  0.0246
13016PP      PP23120   9.856   2.776   4.372 -0.0901 -0.1608  0.0680
13017PP      PP23121   2.090   5.186   3.820  0.1146 -0.2487 -0.1172
13018PP      PP23122  13.163  12.251   8.866  0.2700 -0.1500 -0.0141
13019PP      PP23123   2.221  11.049   1.594 -0.1984 -0.0375  0.0365
13020PP      PP23124  10.582   6.291   3.584  0.5101  0.2659  0.0441
13021PP      PP23125  12.301   8.461   2.411 -0.1447  0.1405 -0.1931
13022PP      PP23126  12.682  15.094   9.888  0.2246 -0.3764  0.1916
13023PP      PP23127   6.904  10.552   1.548  0.1893 -0.1302 -0.0326
13024PP      PP23128   5.363   6.279   4.553 -0.2252  0.0628  0.0882
13025PP      PP23129  14.918  15.144   0.281 -0.1068  0.0994 -0.1567
13026PP      PP23130   2.486   9.135   0.922  0.0392 -0.2966  0.0380
13027PP      PP23131   8.060   1.732   1.091  0.1153 -0.0270  0.0484
13028PP      PP23132   6.743   9.789  12.183 -0.2105 -0.3703  0.1038
13029PP      PP23133   0.351   5.561   3.138  0.2706  0.3156  0.2669
13030PP      PP23134   9.817  15.629   0.209 -0.0409 -0.0942  0.3531
13031PP      PP23135   6.494   2.334  10.138  0.0597 -0.3524 -0.0054
13032PP      PP23136   0.604  14.777   9.976  0.3901 -0.0429  0.0124
13033PP      PP23137   2.013   1.043  11.928  0.1189  0.2471  0.0420
13034PP      PP23138  11.985   2.567   0.066  0.0191 -0.1652 -0.0070
13035PP      PP23139  12.788  12.172   0.077  0.2679 -0.2434 -0.4650
13036PP      PP23140   8.158  10.674   1.483 -0.1930 -0.0467 -0.1318
13037PP      PP23141   7.261   4.726  11.927  0.1767  0.1431  0.0498
13038PP      PP23142  10.981   1.754   0.419  0.2585 -0.0721 -0.1915
13039PP      PP23143  13.989  14.258   0.056  0.1615  0.0468  0.1864
13040PP      PP23144  15.412   9.686   0.087 -0.3144  0.3074  0.1128
13041PP      PP23145  14.387   0.761  12.719 -0.3568  0.1486 -0.1010
13042PP      PP23146  12.819   3.104  11.394 -0.0370 -0.3953  0.2195
13043PP      PP23147   4.911  12.648   9.558  0.3326  0.0818 -0.1142
13044PP      PP23148   5.904   4.505   1.905  0.2028  0.1260 -0.1998
13045PP      PP23149   8.885   6.742   0.142  0.1566 -0.1569  0.1893
13046PP      PP23150   4.372   5.582  11.506  0.3335  0.2226 -0.2055
13047PP      PP23151   1.487  14.997   1.513  0.1399 -0.1246  0.0213
13048PP      PP23152  12.597   9.556  11.330 -0.0261  0.2189 -0.0590
13049PP      PP23153   0.126   9.312   9.260  0.1842  0.2388  0.0087
13050PP      PP23154   4.301  11.717   2.374  0.2768 -0.1374  0.0241
13051PP      PP23155   0.213  13.724   9.960  0.3201  0.1511  0.3190
13052PP      PP23156   4.304   6.258   9.838  0.1323 -0.2870 -0.0087
13053PP      PP23157   4.491  12.846   0.577 -0.0427  0.0883  0.0363
13054PP      PP23158   3.810   4.008  11.833  0.2285 -0.2318 -0.3349
13055PP      PP23159  10.175   0.726   0.073  0.2727  0.1276  0.0565
13056PP      PP23160   1.337  10.477   2.422  0.1335  0.0787  0.3000
13057PP      PP23161   1.987   9.652   2.875 -0.0258  0.2009 -0.1698
13058PP      PP23162  11.922   4.924   8.216  0.3473 -0.2017  0.2465
13059PP      PP23163  15.757   2.591   9.474 -0.0999 -0.2317 -0.2712
13060PP      PP23164   7.204   9.501  10.741  0.0029 -0.0591  0.1452
13061PP      PP23165  10.256   0.307   2.104  0.0397 -0.0592  0.2865
13062PP      PP23166   0.996  11.929   1.659  0.2576  0.0202 -0.1655
13063PP      PP23167  10.273   2.477  10.327  0.2695 -0.6103  0.2956
13064PP      PP23168  12.037  13.621   0.533  0.0337 -0.2536 -0.2591
13065PP      PP23169   3.993  13.542   1.217 -0.0133  0.0327  0.2489
13066PP      PP23170   0.052   8.835   3.926 -0.2582  0.1244 -0.0064
13067PP      PP23171  13.888  14.463  11.179 -0.1321  0.1321 -0.1537
13068PP      PP23172  14.177  10.570   1.574  0.1182 -0.0321 -0.1868
13069PP      PP23173   8.905   9.988  12.466 -0.1360 -0.2447 -0.0804
13070PP      PP23174  12.150   9.985  12.501  0.1017  0.1228 -0.2175
13071PP      PP23175   6.123   1.926   9.524 -0.0644  0.3057 -0.1260
13072PP      PP23176   8.148   0.787   3.065 -0.1513 -0.3228  0.1911
13073PP      PP23177  14.278  12.444  13.019  0.2084  0.1321  0.3121
13074PP      PP23178   4.144  10.177  10.176  0.4322 -0.0561  0.0667
13075PP      PP23179  11.062   3.323  12.916  0.3459  0.2599  0.0791
13076PP      PP23180  15.757   3.704   9.845 -0.0650  0.0768  0.0007
13077PP      PP23181  10.325   4.860  12.098 -0.3597  0.0478 -0.1399
13078PP      PP23182   2.184   6.418   1.220  0.1347 -0.0304  0.1389
13079PP      PP23183  12.336   9.164   1.963  0.0198  0.0899 -0.2179
13080PP      PP23184   3.518   5.877   0.209 -0.1155  0.2672  0.0040
13081PP      PP23185  13.711   6.764  13.275 -0.0421  0.2829 -0.0268
13082PP      PP23186   4.275   4.913  12.110  0.2789  0.0597  0.1155
13083PP      PP23187   5.127   9.236  11.693 -0.4299 -0.1421  0.0401
13084PP      PP23188  15.223   5.065  12.836 -0.2058 -0.2067 -0.0047
13085PP      PP23189   1.304   3.331   3.572  0.1849 -0.0415 -0.2887
13086PP      PP23190   8.488   4.691   2.524  0.2693 -0.1125 -0.1231
13087PP      PP23191   5.881  11.766  12.257  0.0817 -0.0672 -0.1219
13088PP      PP23192  14.559   2.002  10.357  0.1211 -0.0159 -0.0176
13089PP      PP23193   9.026   9.034   9.442  0.0678 -0.0178 -0.0159
13090PP      PP23194   9.515   2.084   0.661  0.3600  0.0878  0.1272
13091PP      PP23195   8.654  10.309   3.887  0.0673  0.1544  0.1198
13092PP      PP23196  13.744   9.719  10.721 -0.0027 -0.0405  0.0650
13093PP      PP23197  14.479   1.927   1.517  0.5498  0.1256  0.3263
13094PP      PP23198   6.926   2.193  10.456 -0.0378  0.1027 -0.0275
13095PP      PP23199   6.760   8.201  12.007 -0.0611  0.0398  0.3427
13096PP      PP23200   3.671  14.028   0.385  0.2349  0.3225 -0.0742
13097PP      PP23201  13.428  11.708   9.134 -0.1622  0.0110 -0.3067
13098PP      PP23202  10.660   7.179  13.265 -0.1249 -0.0200  0.0736
13099PP      PP23203  13.336  15.632   4.111 -0.1905  0.3268 -0.2871
13100PP      PP23204   2.763   6.207  12.499  0.1391  0.0371  0.0382
13101PP      PP23205  10.914  11.016   8.934 -0.0345 -0.1709  0.4419
13102PP      PP23206   5.525  14.991   1.438 -0.1207 -0.1218  0.3018
13103PP      PP23207   1.011   4.700   9.701 -0.1187  0.1104  0.0408
13104PP      PP23208  10.671   3.081   1.670 -0.0713  0.0427 -0.1242
13105PP      PP23209   2.493   6.241  10.543  0.0107 -0.2947  0.1390
13106PP      PP23210   1.857   9.134   9.639  0.0062  0.1522 -0.0070
13107PP      PP23211   7.608   7.719  11.005  0.0115  0.0414  0.2095
13108PP      PP23212   1.813  14.165   0.797 -0.0272  0.0117  0.1296
13109PP      PP23213   8.035   1.436   4.592  0.0501 -0.4903  0.1353
13110PP      PP23214   8.572   3.209   2.503 -0.0786 -0.2863 -0.0334
13111PP      PP23215   6.758   1.205   1.588 -0.1554  0.0788 -0.1420
13112PP      PP23216   4.616   2.121  12.336  0.0523  0.3275 -0.3539
13113PP      PP23217  14.019   2.809  11.235 -0.2428  0.4355  0.2356
13114PP      PP23218  13.736  12.882  12.226 -0.1361 -0.0010  0.0388
13115PP      PP23219  13.384  13.800  11.546  0.0725 -0.1197 -0.1626
13116PP      PP23220   8.392   2.569   9.583 -0.2156  0.0774 -0.0647
13117PP      PP23221   2.619  11.602   0.147 -0.0557  0.2244 -0.1992
13118PP      PP23222  12.770   0.524   3.755  0.0977 -0.2727 -0.0429
13119PP      PP23223   4.035  10.467   9.244 -0.0160  0.2768 -0.1110
13120PP      PP23224   5.424   7.696   9.193 -0.0407 -0.3184 -0.0505
13121PP      PP23225   9.536  12.670   4.221  0.1409 -0.0638  0.1013
13122PP      PP23226   0.760  15.153   9.729 -0.1695 -0.2164 -0.0849
13123PP      PP23227   5.165   5.739   3.755  0.1043  0.0207 -0.1016
13124PP      PP23228   4.828   1.514   0.638  0.3040  0.1850  0.3242
13125PP      PP23229   8.682   5.174   3.442  0.0540  0.0627  0.0983
13126PP      PP23230  11.131  12.750   0.988  0.0154  0.3800 -0.0143
13127PP      PP23231   8.833   1.262   0.821 -0.0244  0.2863 -0.3481
13128PP      PP23232   9.981   9.334  13.060  0.0784  0.3082 -0.4726
13129PP      PP23233  10.364   7.292   8.353  0.3293  0.2405  0.0888
13130PP      PP23234  15.374   6.356   9.243  0.0232  0.0505  0.3540
13131PP      PP23235  13.321   4.234   0.788 -0.1519  0.1744 -0.1089
13132PP      PP23236   2.296   3.306  11.339  0.0744  0.0734  0.0494
13133PP      PP23237   7.205   7.006   9.994  0.4058 -0.3083 -0.2392
13134PP      PP23238   6.094   8.187   3.013  0.0549 -0.0222 -0.3861
13135PP      PP23239   3.010  11.003  13.151  0.1347 -0.1031 -0.0640
13136PP      PP23240   7.001   7.564  12.370 -0.1377  0.3952  0.2099
13137PP      PP23241   8.929  10.991   4.635  0.0197  0.0712 -0.0562
13138PP      PP23242  15.884   4.465  13.359  0.0763  0.2166  0.0150
13139PP      PP23243  10.794   4.969  11.430 -0.1341 -0.0143  0.2943
13140PP      PP23244  11.888   7.637  12.775  0.1248 -0.0331 -0.0497
13141PP      PP23245   7.109   8.482   8.791  0.0470  0.1740  0.1369
13142PP      PP23246   0.217  10.263  10.594 -0.2451 -0.1634 -0.1893
13143PP      PP23247  14.658   7.857  11.797 -0.2582 -0.1373  0.0415
13144PP      PP23248   5.466   9.093   4.422 -0.0682  0.2848 -0.1621
13145PP      PP23249  11.379   6.424  12.898  0.0244  0.0058  0.3734
13146PP      PP23250   3.894  13.593  12.095 -0.3614 -0.1778 -0.1766
13147PP      PP23251   1.474  12.096   1.456 -0.1642 -0.4672 -0.1103
13148PP      PP23252   7.827  11.659   2.612 -0.2799 -0.0677 -0.5493
13149PP      PP23253  11.453   5.191   0.630 -0.0609 -0.0295  0.0386
13150PP      PP23254   3.328   5.433   4.258  0.2436 -0.1086  0.0083
13151PP      PP23255   8.589  12.012   1.592  0.1262 -0.0243 -0.1531
13152PP      PP23256  12.420  14.831  10.479  0.0777  0.0822  0.3353
13153PP      PP23257  13.841  11.942   9.113  0.0906 -0.0233 -0.3995
13154PP      PP23258   3.634   2.331  10.031 -0.0264  0.1719 -0.0377
13155PP      PP23259   5.100   3.170   9.159  0.3790  0.0009  0.1863
13156PP      PP23260   5.861   0.607  10.023  0.1472 -0.1605  0.0069
13157PP      PP23261   6.369  11.058  12.533 -0.0898 -0.2148  0.0205
13158PP      PP23262  12.400  14.337   3.579 -0.0046  0.1404 -0.2250
13159PP      PP23263   6.568   3.644   2.499 -0.1365  0.0846 -0.1199
13160PP      PP23264   1.418  15.331  11.196  0.0828  0.1546 -0.0051
13161PP      PP23265   1.842   0.566  11.869 -0.1449  0.0630  0.2297
13162PP      PP23266  10.183  12.414   9.641  0.1297 -0.2567 -0.2747
13163PP      PP23267  15.012   9.324  12.216 -0.3318 -0.0756  0.0396
13164PP      PP23268   5.475   2.994   2.455  0.2476 -0.0959  0.0429
13165PP      PP23269   3.296  14.023   0.020  0.0574  0.0793 -0.1111
13166PP      PP23270  14.431   9.350   0.561  0.2688  0.0904  0.1809
13167PP      PP23271   7.275   3.278   3.017 -0.2426  0.0734 -0.2064
13168PP      PP23272   1.015   0.865  10.310 -0.2618  0.2807 -0.3933
13169PP      PP23273   0.051  11.892  11.136  0.2971  0.3889  0.0238
13170PP      PP23274   8.142   2.933   0.262  0.2206 -0.1080  0.0068
13171PP      PP23275   3.217   7.944   9.378 -0.0897  0.3261 -0.2237
13172PP      PP23276   5.429   5.286   0.155 -0.1245 -0.1430 -0.1728
13173PP      PP23277   4.742  10.212   0.338  0.0675 -0.1354 -0.2199
13174PP      PP23278   7.503  13.660   2.940  0.1248  0.1539 -0.0096
13175PP      PP23279   6.890   4.155   3.406 -0.1727  0.1061  0.1563
13176PP      PP23280   9.216   0.595  12.345 -0.2772  0.0083  0.5338
13177PP      PP23281   9.633   0.931   9.971  0.1905  0.1789  0.0278
13178PP      PP23282   2.913  15.726   9.622  0.2748 -0.1222  0.0806
13179PP      PP23283  14.308  10.493   9.622  0.2186  0.1521  0.0045
13180PP      PP23284   6.506   9.946   3.338  0.2216 -0.1336  0.0666
13181PP      PP23285   1.799  11.431  13.387 -0.0275 -0.1133  0.1136
13182PP      PP23286   8.147   1.648   9.585  0.0310  0.1739 -0.0823
13183PP      PP23287  11.547   1.490   2.088 -0.2575 -0.1112  0.2914
13184PP      PP23288  14.685  10.428  10.011  0.1523 -0.1685  0.0457
13185PP      PP23289  14.784   1.456  13.503 -0.3907 -0.0422  0.2865
13186PP      PP23290   3.433  10.448   9.988 -0.1042  0.2083  0.6078
13187PP      PP23291  11.426   7.740   7.917  0.1520  0.2155 -0.4002
13188PP      PP23292   3.434   6.757   2.902  0.0602  0.2644  0.1122
13189PP      PP23293   8.111   1.145   0.389 -0.0884 -0.0163  0.0648
13190PP      PP23294   1.055   5.938   9.332  0.0520 -0.0125  0.2985
13191PP      PP23295   5.246  14.606   9.505  0.2065  0.0625  0.4294
13192PP      PP23296   8.605  10.983   3.183  0.0247  0.2344  0.2236
13193PP      PP23297   6.707   9.756   9.896  0.1528  0.3462  0.0540
13194PP      PP23298  11.176  12.741   2.758 -0.1363  0.0855 -0.2846
13195PP      PP23299   5.014  14.765   0.838  0.2542  0.2171 -0.0798
13196PP      PP23300   4.902  12.947  12.461  0.2009 -0.1568  0.1884
13197PP      PP23301   4.189   9.182  10.289 -0.1181 -0.3059  0.0423
13198PP      PP23302   1.381   3.122   3.095  0.2921  0.0259  0.2684
13199PP      PP23303  10.423   3.237  10.782 -0.1924 -0.0038  0.2331
13200PP      PP23304  13.430   1.213   3.603 -0.1659  0.1078  0.1326
13201PP      PP23305  11.255   9.349  12.267 -0.0531 -0.2258 -0.1236
13202PP      PP23306   5.487   0.642  11.343  0.0679 -0.0459 -0.4326
13203PP      PP23307   9.555  10.742   4.316  0.0223  0.2777 -0.0904
13204PP      PP23308   8.916  11.384   9.542  0.0504 -0.0227  0.1926
13205PP      PP23309   2.502   1.193   3.580  0.1619  0.4971  0.2647
13206PP      PP23310  10.152  14.172   3.406 -0.1058 -0.0994  0.0009
13207PP      PP23311   9.856   1.728   0.499  0.1105  0.1002 -0.1442
13208PP      PP23312   9.075   3.882  11.069 -0.0738  0.1496 -0.3304
13209PP      PP23313   6.796   0.609   2.320  0.0999  0.1687 -0.0281
13210PP      PP23314   4.426   1.618  10.175 -0.1602  0.0279 -0.0218
13211PP      PP23315   2.987   8.782   4.188 -0.0644 -0.0957 -0.0281
13212PP      PP23316   6.876   2.564  13.048 -0.2292 -0.2121 -0.0718
13213PP      PP23317   6.417   7.192   2.685 -0.1466  0.3998 -0.1216
13214PP      PP23318  11.572   2.981   0.976 -0.0097 -0.0448  0.1085
13215PP      PP23319  15.227   8.503  10.185  0.0851  0.3367 -0.1640
13216PP      PP23320   6.248   6.252  12.860  0.0604  0.1139 -0.1387
13217PP      PP23321  13.946   9.095  11.242  0.1497 -0.2413  0.2786
13218PP      PP23322   0.325   4.315  12.492  0.1712 -0.1182  0.1653
13219PP      PP23323   8.597   2.006   4.030 -0.0031  0.1028 -0.0562
13220PP      PP23324   6.951   1.731  12.633  0.0194 -0.1632 -0.2779
13221PP      PP23325  14.938   6.045   9.980 -0.0380 -0.1671  0.2170
13222PP      PP23326  12.647   4.319   1.910  0.1492 -0.0834  0.0748
13223PP      PP23327  14.719  14.670   2.890 -0.1940 -0.0847 -0.1451
13224PP      PP23328   9.224  10.381   4.114 -0.0281 -0.1483 -0.0507
13225PP      PP23329   2.629   4.101   3.002 -0.1418  0.0134  0.2789
13226PP      PP23330   8.030   6.490   1.125  0.1081 -0.1354  0.1214
13227PP      PP23331   5.409  15.355   9.892 -0.1178 -0.1011 -0.2893
13228PP      PP23332   2.516  13.730  10.524 -0.1170  0.3012 -0.1073
13229PP      PP23333  13.800   8.858  10.788  0.0219  0.1634  0.1271
13230PP      PP23334   3.078  11.255   0.252 -0.0062 -0.3962  0.0951
13231PP      PP23335   7.125   5.490  11.310 -0.0999  0.2669  0.1040
13232PP      PP23336   4.427   3.926  13.306 -0.2875 -0.0733  0.1864
13233PP      PP23337   7.227   0.090  13.416  0.0548 -0.2289 -0.1774
13234PP      PP23338   6.549  10.110  11.243 -0.0869  0.1956  0.1407
13235PP      PP23339   1.189   4.606   0.669 -0.0046 -0.0916 -0.0267
13236PP      PP23340  10.529  11.557   2.166 -0.2248 -0.0012  0.0300
13237PP      PP23341   5.141  10.388   2.848 -0.2579  0.1231  0.0418
13238PP      PP23342   7.318   1.196   2.705 -0.2486 -0.2647  0.0050
13239PP      PP23343   1.443  13.944  12.134  0.2939  0.2083  0.0833
13240PP      PP23344   3.567   4.415  11.062 -0.0158  0.0842 -0.2959
13241PP      PP23345   6.439  15.225   2.822 -0.0238 -0.0140 -0.1767
13242PP      PP23346   2.240   3.197   4.734  0.2487  0.0708 -0.0751
13243PP      PP23347  12.846   4.734  13.063  0.1931 -0.0839 -0.3349
13244PP      PP23348   3.589  13.714  11.635 -0.1288 -0.0360 -0.0053
13245PP      PP23349  12.856   6.442  11.536 -0.0645  0.2774  0.0103
13246PP      PP23350  11.304  11.294  12.167 -0.3425  0.0621  0.2415
13247PP      PP23351   0.441   7.745  13.484  0.0725  0.1144  0.1293
13248PP      PP23352   6.352   4.000   0.814  0.0435 -0.2660 -0.2217
13249PP      PP23353   1.385   4.414   2.692 -0.0247 -0.0088  0.0875
13250PP      PP23354  11.927  13.498   8.626 -0.2036  0.1679 -0.0749
13251PP      PP23355   6.603   2.079   2.739 -0.0235  0.5916 -0.1651
13252PP      PP23356   0.377   6.490   0.296 -0.1105  0.2243  0.1892
13253PP      PP23357   8.523   9.390   3.623 -0.1774 -0.4964 -0.2531
13254PP      PP23358   2.394  10.680   2.659  0.0734  0.1755  0.0142
13255PP      PP23359   0.907   4.347   3.011  0.0108 -0.0033  0.2010
13256PP      PP23360  11.889   9.325   9.527 -0.1374 -0.0086 -0.1005
13257PP      PP23361  10.141   2.979  10.445  0.2160 -0.1497 -0.0835
13258PP      PP23362   9.461   4.256  10.452 -0.0053  0.2070 -0.1001
13259PP      PP23363   5.392   1.357   2.415  0.0724  0.0959  0.2214
13260PP      PP23364  12.221   5.857   1.146 -0.2070  0.0214 -0.0752
13261PP      PP23365   5.376  10.813   4.157 -0.0315 -0.0023  0.1812
13262PP      PP23366   5.872   3.019  10.085  0.4054 -0.0508 -0.0067
13263PP      PP23367  12.879   3.630   1.278 -0.2577  0.0329 -0.0552
13264PP      PP23368  15.390   2.356   4.660  0.1033 -0.0614 -0.0486
13265PP      PP23369   0.674   9.467  12.189  0.1241 -0.2640  0.2242
13266PP      PP23370   7.345   7.895   2.686 -0.0919  0.1084 -0.1239
13267PP      PP23371   2.174   8.168   0.528 -0.1289 -0.0126  0.1176
13268PP      PP23372   3.808   8.997   3.123 -0.0948  0.0697 -0.0353
13269PP      PP23373  12.161  13.277  11.652 -0.0833 -0.0750 -0.1580
13270PP      PP23374  15.415   0.214   9.404 -0.2156  0.1988 -0.0300
13271PP      PP23375   5.789   8.041   9.386 -0.1709  0.3252 -0.3546
13272PP      PP23376  15.116  12.310   9.622 -0.3041  0.1670  0.0013
13273PP      PP23377   2.432   1.503   0.759  0.1204  0.3531  0.0882
13274PP      PP23378   2.058   6.071   0.794 -0.1301  0.1371  0.0118
13275PP      PP23379   9.635   4.181  13.333 -0.0032 -0.0202  0.0261
13276PP      PP23380  13.255  11.987   2.754 -0.3393 -0.1501  0.0175
13277PP      PP23381   4.756  10.754   2.167  0.4703  0.3762 -0.0043
13278PP      PP23382   1.177   3.662  10.872 -0.0669 -0.0258  0.1124
13279PP      PP23383   8.209   2.053  11.714  0.2046  0.1043  0.1962
13280PP      PP23384   6.388  14.074  10.792 -0.1544 -0.0600 -0.0666
13281PP      PP23385  15.790   4.987   4.120  0.3390 -0.1530 -0.0629
13282PP      PP23386   4.698   6.190   3.626 -0.1784  0.1698  0.1335
13283PP      PP23387   5.872  11.599   3.271  0.1496 -0.1139  0.5494
13284PP      PP23388   6.993  10.871  12.835  0.1188 -0.2454  0.1240
13285PP      PP23389  12.438   4.377  11.580 -0.0262 -0.0140 -0.4918
13286PP      PP23390  13.912  14.235  11.771 -0.3446 -0.2105  0.1423
13287PP      PP23391   8.004   7.574  12.897  0.0992  0.1023 -0.1059
13288PP      PP23392  13.715  13.304  10.551 -0.1483  0.2737 -0.1721
13289PP      PP23393   7.279   9.631   1.571  0.0341  0.0131  0.1705
13290PP      PP23394  12.329   9.566   1.159  0.1959 -0.0910  0.2556
13291PP      PP23395  15.009   9.056   1.720 -0.0969 -0.1216 -0.0373
13292PP      PP23396   2.185   7.172   4.198 -0.2867  0.1788  0.0070
13293PP      PP23397   0.791   2.170   2.434  0.2063  0.0727  0.3138
13294PP      PP23398   2.404  13.880   3.505 -0.1815 -0.0860  0.1085
13295PP      PP23399  13.223   9.500   9.029 -0.0670  0.0814  0.1809
13296PP      PP23400  11.708   3.162  13.200 -0.1514 -0.0141  0.1773
13297PP      PP23401  12.619   5.132   2.731  0.1924 -0.1524 -0.2018
13298PP      PP23402   1.651   1.647  12.538  0.2374 -0.3946 -0.1205
13299PP      PP23403  12.271   1.747   2.868 -0.2450 -0.3293 -0.1869
13300PP      PP23404   4.654  14.260   3.935  0.0543 -0.3298  0.2720
13301PP      PP23405   7.175   0.333   1.975 -0.0683 -0.1089  0.2874
13302PP      PP23406   0.153  11.671  12.818 -0.0578 -0.2594 -0.0166
13303PP      PP23407  15.003  12.530   1.081  0.0601  0.1795 -0.0783
13304PP      PP23408  13.155   2.824   0.554  0.0942 -0.0019 -0.0471
13305PP      PP23409   5.518  10.958  11.046 -0.3646  0.1438 -0.1620
13306PP      PP23410   7.143   5.648  13.024 -0.0926 -0.4403 -0.0020
13307PP      PP23411   2.735   6.451   1.272  0.0906 -0.1225 -0.1987
13308PP      PP23412   0.148   1.033   1.004  0.1656 -0.2627  0.3709
13309PP      PP23413  15.450  11.556  12.317 -0.3408  0.1752 -0.5668
13310PP      PP23414   6.882   9.913   1.698  0.0095  0.1407  0.1312
13311PP      PP23415  11.207   0.853  13.045  0.1654 -0.2605  0.0969
13312PP      PP23416  10.097  11.732   4.210 -0.1446  0.1683 -0.2316
13313PP      PP23417   4.668  10.273   1.470  0.3841  0.0061  0.1819
13314PP      PP23418   1.677   9.525   2.510  0.1000  0.1510 -0.2713
13315PP      PP23419  15.281   1.532   0.213  0.2955  0.0273 -0.0067
13316PP      PP23420   9.288   2.446   0.179  0.0427  0.0453  0.0987
13317PP      PP23421   4.365  12.021   4.043  0.0406  0.1726  0.1902
13318PP      PP23422   2.260   1.739   2.094 -0.2107  0.2352  0.2226
13319PP      PP23423   5.338  14.900   0.310 -0.1169 -0.1272 -0.0672
13320PP      PP23424   6.350  10.392   2.643 -0.2842 -0.0593  0.1685
13321PP      PP23425   5.612  12.318   9.355  0.2146  0.3318  0.0871
13322PP      PP23426  12.899  11.468   2.623 -0.1005 -0.0119 -0.1610
13323PP      PP23427   1.162   7.633   0.538  0.1761  0.1878 -0.0547
13324PP      PP23428  10.217   6.916   9.849 -0.1416 -0.0428 -0.2729
13325PP      PP23429   7.667   8.562  12.825  0.1113  0.0613 -0.0107
13326PP      PP23430   8.953   2.591   2.213  0.1838 -0.1276 -0.0758
13327PP      PP23431   3.726  13.271  12.869 -0.0824 -0.2635 -0.0397
13328PP      PP23432  12.986   0.058  11.523  0.0068  0.1785  0.2048
13329PP      PP23433  12.114   0.511  13.521 -0.0583 -0.1594 -0.0730
13330PP      PP23434   0.543   6.993   2.341 -0.1282 -0.1450 -0.1747
13331PP      PP23435   1.560   6.692   2.664  0.1016 -0.1525  0.1611
13332PP      PP23436   1.420   0.649   0.654 -0.1832  0.4352  0.2665
13333PP      PP23437  15.438   4.621   0.620  0.0850 -0.0710 -0.2403
13334PP      PP23438  12.236   6.449   1.776 -0.1423 -0.1462  0.1494
13335PP      PP23439  11.672  12.603   0.985 -0.1763  0.1323  0.0402
13336PP      PP23440   5.700   2.774   3.373 -0.1393  0.2440  0.0566
13337PP      PP23441  13.064   1.047   3.061  0.2464  0.0437 -0.2424
13338PP      PP23442  15.077  10.440  11.443 -0.3114 -0.3273 -0.1907
13339PP      PP23443   5.405   8.434   2.335 -0.1119 -0.2171 -0.1341
13340PP      PP23444   1.534   3.163  10.875  0.0652 -0.0122  0.0580
13341PP      PP23445   5.208  11.166   1.415  0.1694 -0.1975  0.0533
13342PP      PP23446   7.382  10.870   9.618  0.1810 -0.0207  0.0643
13343PP      PP23447   7.547   6.739  13.341 -0.0384  0.2505 -0.0189
13344PP      PP23448   9.555   0.574  10.428 -0.0902  0.0018  0.0734
13345PP      PP23449   8.933   6.023   2.954 -0.4110 -0.2318 -0.1568
13346PP      PP23450   5.240   4.731  10.702  0.5675 -0.0348 -0.3141
13347PP      PP23451   9.878   5.672   2.699 -0.0181  0.1021 -0.3003
13348PP      PP23452  14.144   4.215  11.209  0.0490 -0.1358 -0.2268
13349PP      PP23453  15.318   3.201  11.532  0.2411  0.0842  0.0784
13350PP      PP23454   3.637  14.230  11.853 -0.2881  0.0318 -0.0916
13351PP      PP23455   4.901   6.591   9.694  0.0985 -0.1540 -0.4518
13352PP      PP23456  14.431   7.464  11.067 -0.0519  0.0721 -0.1312
13353PP      PP23457  10.356  10.846   3.994 -0.0318 -0.0330  0.2008
13354PP      PP23458   8.286   8.823  10.545  0.3247  0.4249  0.0136
13355PP      PP23459  10.692   7.286   3.198 -0.0604 -0.1277 -0.0195
13356PP      PP23460  11.939   7.957   8.987  0.1826  0.1174  0.1258
13357PP      PP23461   6.572   9.354  10.773  0.4683  0.0973 -0.1875
13358PP      PP23462  11.865   8.168   8.092 -0.1379  0.3277  0.1020
13359PP      PP23463   4.082   0.611   3.285 -0.3788  0.2870  0.1034
13360PP      PP23464   7.174   5.906   0.421  0.2681  0.0134 -0.0833
13361PP      PP23465   2.649   2.415   4.291  0.1340 -0.0419 -0.1168
13362PP      PP23466   1.888   7.051  10.664 -0.3980  0.5033 -0.1052
13363PP      PP23467   6.456   3.418   3.197  0.0814 -0.0321 -0.3206
13364PP      PP23468   2.529   5.128   1.416  0.0060  0.1115 -0.1700
13365PP      PP23469  12.356  13.671   1.778  0.4825 -0.1031 -0.0715
13366PP      PP23470   9.161  10.287  12.801  0.2808  0.0066 -0.1433
13367PP      PP23471   7.531  13.542   0.641  0.0252 -0.0249 -0.1379
13368PP      PP23472   5.284   6.849  10.465 -0.0447 -0.1350  0.0841
13369PP      PP23473  15.146  12.743   0.582 -0.2691 -0.1646  0.1314
13370PP      PP23474  11.025   5.176   2.830 -0.2192 -0.0761  0.3726
13371PP      PP23475  12.359   2.426  10.652 -0.1120 -0.3130  0.0268
13372PP      PP23476  15.620   0.688   9.249 -0.2084  0.3184  0.2333
13373PP      PP23477   4.695   1.383   9.098 -0.0891 -0.0029  0.0963
13374PP      PP23478   3.737   4.819   9.606 -0.0503 -0.1066  0.1113
13375PP      PP23479   5.442   2.081   0.256 -0.0224  0.1998 -0.2694
13376PP      PP23480  12.229  12.495  10.936 -0.1813 -0.1983  0.1738
13377PP      PP23481   9.169   6.665  11.275 -0.1060 -0.0872  0.0375
13378PP      PP23482   3.345   0.327  10.325  0.2571  0.0444 -0.2060
13379PP      PP23483   6.005  12.906  12.827  0.4011  0.3382 -0.2019
13380PP      PP23484   7.511   0.399   9.555  0.1380  0.3229 -0.0345
13381PP      PP23485  12.585   4.580   9.281 -0.1572 -0.2113 -0.0003
13382PP      PP23486  12.776   8.280   0.666  0.2279 -0.0916 -0.2195
13383PP      PP23487   2.947   3.384  10.080 -0.0382 -0.0840  0.0048
13384PP      PP23488   2.112   2.914  10.115 -0.0204 -0.0032  0.1288
13385PP      PP23489  10.091   6.524  11.887 -0.2609 -0.1681 -0.0280
13386PP      PP23490   0.664   1.640   2.305 -0.0633  0.0669 -0.0180
13387PP      PP23491   8.886   3.524   4.326  0.2755  0.0030  0.3477
13388PP      PP23492   8.311  10.202   8.574  0.1679  0.2210 -0.0445
13389PP      PP23493   8.083   7.458   1.278 -0.0629  0.1356  0.3456
13390PP      PP23494  12.494   1.627   1.845 -0.3978  0.0972 -0.1782
13391PP      PP23495   4.056  12.932   2.912  0.0096 -0.1237  0.0844
13392PP      PP23496  10.281  10.420  11.280  0.3467  0.2708 -0.2181
13393PP      PP23497   5.109  12.671   2.247  0.2323 -0.1549  0.0047
13394PP      PP23498  14.219  15.289   3.816  0.1712 -0.1213 -0.0330
13395PP      PP23499  10.250  12.934  11.410  0.1420  0.0285 -0.2177
13396PP      PP23500   6.611   3.878  10.155 -0.1733 -0.0754 -0.2526
13397PP      PP23501  10.591  10.925   4.444  0.0094  0.2058 -0.1635
13398PP      PP23502  12.575  12.595   9.760 -0.2721 -0.0400  0.0885
13399PP      PP23503  12.098  15.307   3.708 -0.0535 -0.2593  0.0106
13400PP      PP23504   2.652  14.071  12.106  0.1243 -0.1528  0.4909
13401PP      PP23505   7.001  15.879   2.298  0.1918  0.0178  0.1778
13402PP      PP23506   6.620   5.077   2.888 -0.3319 -0.0250  0.0066
13403PP      PP23507   4.142  11.420  10.877  0.2768  0.0074  0.1285
13404PP      PP23508   0.256   1.720   1.442 -0.1056 -0.2261 -0.1295
13405PP      PP23509   3.757   3.805   2.309 -0.1894 -0.3344  0.1731
13406PP      PP23510   9.708  12.837  12.224  0.1721  0.2590  0.2340
13407PP      PP23511   4.005  14.397   1.585  0.2747 -0.1038  0.0533
13408PP      PP23512   8.712  12.340   0.624  0.1027  0.0987  0.0560
13409PP      PP23513  14.906   6.425  13.412  0.3673 -0.0895 -0.0699
13410PP      PP23514   5.605   7.714   1.816 -0.3511 -0.0262 -0.0874
13411PP      PP23515   3.688  11.236  11.516  0.0237 -0.1397  0.2152
13412PP      PP23516   3.714   8.406   2.857  0.1060 -0.0324 -0.0795
13413PP      PP23517   2.351  14.396   0.900  0.0745  0.2731 -0.0809
13414PP      PP23518   1.388   4.395   3.285  0.0951 -0.0988 -0.1967
13415PP      PP23519   4.220   5.255   4.340  0.1901 -0.0538 -0.0716
13416PP      PP23520   6.714   1.451   2.253 -0.1499 -0.0512 -0.1368
13417PP      PP23521   2.496   5.083  10.154  0.2512  0.4229  0.1680
13418PP      PP23522   0.974  12.119  10.737  0.1259 -0.1662  0.1678
13419PP      PP23523   2.774   0.503   4.393  0.1574  0.0594  0.1115
13420PP      PP23524   3.279   4.024   2.218 -0.0794  0.4305  0.0794
13421PP      PP23525  14.134   6.591   3.834 -0.0757 -0.0369  0.0409
13422PP      PP23526   4.666   3.796   2.571 -0.0254  0.1099  0.0337
13423PP      PP23527   7.535  11.064   0.589  0.1535  0.2736 -0.0087
13424PP      PP23528   0.741   8.419   8.589  0.0812 -0.0923 -0.0545
13425PP      PP23529   1.329   6.119   9.885  0.1631 -0.0473  0.2377
13426PP      PP23530  12.607  12.841   1.168  0.0171 -0.1999 -0.0594
13427PP      PP23531   5.166   2.235   8.108  0.1260 -0.1093  0.2641
13428PP      PP23532  13.567  14.611  11.853  0.1375  0.1476  0.0130
13429PP      PP23533  10.228   7.122   2.993 -0.2985  0.0323  0.2540
13430PP      PP23534  11.853  14.019   2.979  0.1642  0.1176  0.2515
13431PP      PP23535   9.683   9.186   0.642 -0.0181  0.0744  0.2882
13432PP      PP23536   4.446   0.871   4.042  0.1643  0.0343 -0.1880
13433PP      PP23537   5.940   1.096   8.909  0.0172 -0.0148 -0.1530
13434PP      PP23538  11.237   6.324   2.761  0.0987  0.1356  0.0054
13435PP      PP23539   9.338   6.198   1.776 -0.0874  0.0598 -0.1808
13436PP      PP23540  13.738  14.280   1.161 -0.0637  0.0910  0.1647
13437PP      PP23541  10.347  11.627  12.876  0.2992  0.1839  0.0337
13438PP      PP23542  14.274   2.236  12.361 -0.1952 -0.2324 -0.1714
13439PP      PP23543   4.604   7.975  12.259  0.0432  0.2092 -0.0014
13440PP      PP23544  15.514  14.100   9.971  0.1193 -0.1176 -0.2300
13441PP      PP23545   2.578  15.263  10.918  0.0887 -0.0674  0.1210
13442PP      PP23546   7.821   0.412  10.022 -0.2073 -0.0677  0.2342
13443PP      PP23547  11.746   0.007   1.422 -0.1159  0.0007 -0.2572
13444PP      PP23548  12.098  10.809   9.713  0.0767  0.0429  0.0059
13445PP      PP23549   5.332   1.718  12.522 -0.1507 -0.1268 -0.0760
13446PP      PP23550   9.452   6.113   8.120 -0.2422  0.0867 -0.2579
13447PP      PP23551   9.454   3.046   1.003  0.0748 -0.2668 -0.0907
13448PP      PP23552  13.966  12.825   2.530 -0.1053 -0.0541 -0.0722
13449PP      PP23553   4.114  14.129   3.310 -0.5365 -0.0247  0.2129
13450PP      PP23554   8.603   8.999  13.413  0.0450 -0.2461  0.2440
13451PP      PP23555   4.684  12.476   3.223 -0.0125 -0.2371 -0.1784
13452PP      PP23556   2.019  10.147   0.638 -0.2216  0.1969  0.0690
13453PP      PP23557  13.177   2.282   9.184 -0.1819  0.4492 -0.2250
13454PP      PP23558   7.218  11.147   4.086  0.1327 -0.1838 -0.0455
13455PP      PP23559  12.268   5.197  11.817  0.0869 -0.0842 -0.1466
13456PP      PP23560   5.278   8.532   0.131  0.1068  0.1309  0.3098
13457PP      PP23561  14.914  11.214  11.882  0.1214 -0.1020 -0.3889
13458PP      PP23562   1.498   7.776   9.424  0.0851  0.1572 -0.1973
13459PP      PP23563   3.677   6.696  11.144  0.3706  0.3510 -0.1406
13460PP      PP23564   5.984  14.092  13.413  0.2184 -0.0795  0.1304
13461PP      PP23565  11.616  12.130  12.321  0.1198 -0.0388  0.1129
13462PP      PP23566  11.420  11.941   4.795 -0.1825 -0.0905 -0.2464
13463PP      PP23567  10.025   7.863   4.005  0.2083  0.2253  0.0303
13464PP      PP23568   4.893   9.291   2.628  0.0287  0.2426  0.0120
13465PP      PP23569  11.657  12.588   2.645 -0.1723 -0.3610 -0.1731
13466PP      PP23570   9.390   6.097   0.639  0.0652 -0.1210 -0.2839
13467PP      PP23571   4.743  11.901   0.850  0.0029 -0.1193  0.1984
13468PP      PP23572   5.275  14.163  11.886  0.3583 -0.1434 -0.2515
13469PP      PP23573  13.606   3.903   0.028  0.0710 -0.1859  0.0562
13470PP      PP23574   6.938   5.123   0.541 -0.1466 -0.0662 -0.2039
13471PP      PP23575   1.201   2.489  12.909 -0.1135 -0.1359 -0.1146
13472PP      PP23576   1.913   2.004  11.011 -0.0203 -0.1530 -0.1262
13473PP      PP23577   3.531   9.292   2.798 -0.3671 -0.0217 -0.2323
13474PP      PP23578  11.966   1.302   0.617 -0.1170  0.0389  0.3048
13475PP      PP23579   9.419  10.414   0.489  0.0830 -0.0181  0.2317
13476PP      PP23580   7.668  14.449   5.357  0.5152 -0.1063  0.1509
13477PP      PP23581   0.927   5.453  11.872  0.3641 -0.0607 -0.2992
13478PP      PP23582  11.715  12.730  12.882  0.3935  0.1340  0.0935
13479PP      PP23583  13.080   6.600  13.215 -0.0461  0.0295 -0.0490
13480PP      PP23584  15.146   9.758   9.422  0.0225  0.0235 -0.0926
13481PP      PP23585  13.445  13.175  11.555  0.1436 -0.0488 -0.2421
13482PP      PP23586   4.762   4.954  11.369 -0.1162  0.0153 -0.0869
13483PP      PP23587   8.371  13.398   1.348 -0.0450 -0.1237 -0.1109
13484PP      PP23588   7.871   5.364  11.498 -0.0153  0.0244 -0.0763
13485PP      PP23589   1.817   1.944   9.779  0.1097 -0.5550 -0.0369
13486PP      PP23590   1.304   4.473  13.192 -0.2614  0.0397  0.0120
13487PP      PP23591   9.846   3.575  12.609 -0.3063 -0.0015  0.1691
13488PP      PP23592   3.420   8.132   4.063 -0.3752  0.1984 -0.1632
13489PP      PP23593   1.011   6.696   0.484  0.0747  0.2814 -0.0726
13490PP      PP23594  14.325  14.006   3.051 -0.3157 -0.0661 -0.0696
13491PP      PP23595  11.543   8.408   1.074 -0.0060  0.2856 -0.2276
13492PP      PP23596   1.476   8.133   4.334  0.1971  0.0148 -0.6475
13493PP      PP23597  14.980   8.906   9.299  0.4105  0.0017  0.0541
13494PP      PP23598   8.403  11.121   1.880 -0.0523 -0.2885  0.0060
13495PP      PP23599   9.638   5.393  12.293  0.0309  0.1913 -0.1491
13496PP      PP23600  10.252   2.271  13.242  0.1366  0.0414  0.1499
13497PP      PP23601  13.699   9.273  10.420 -0.0488  0.1621  0.1774
13498PP      PP23602   1.836   7.518   2.100 -0.2212  0.1614  0.0168
13499PP      PP23603  12.854  12.579  10.573 -0.2599 -0.3573 -0.3185
13500PP      PP23604  12.361   8.978   2.536 -0.0280  0.3328 -0.2193
13501PP      PP23605   3.340   7.826   3.661  0.3693  0.0731 -0.0735
13502PP      PP23606   0.391   2.753   3.268 -0.1079 -0.0938 -0.0054
13503PP      PP23607  13.093   4.041   1.780 -0.0483 -0.0828 -0.0334
13504PP      PP23608   1.513  12.265   8.818  0.1112 -0.2786 -0.1714
13505PP      PP23609   2.059   2.508   0.956 -0.2078 -0.1054  0.0354
13506PP      PP23610   6.228  11.860  11.874 -0.1732  0.0013 -0.2909
13507PP      PP23611   3.786   5.492   0.529 -0.0560 -0.0602 -0.1111
13508PP      PP23612  15.600  13.590  11.041  0.0210  0.1364 -0.0240
13509PP      PP23613   4.652  10.814   9.515  0.0106  0.1890  0.0379
13510PP      PP23614  15.369  13.003  10.848  0.1887 -0.0609 -0.1916
13511PP      PP23615  10.892  10.504   8.691 -0.0809  0.1329 -0.3556
13512PP      PP23616   7.554   0.618   4.494 -0.0852  0.2184 -0.3271
13513PP      PP23617   0.487  14.848  12.667 -0.2860 -0.0023 -0.0630
13514PP      PP23618  13.023   0.199   2.426 -0.1163 -0.2068 -0.0205
13515PP      PP23619   8.831  10.927   9.554 -0.0550  0.1305 -0.1881
13516PP      PP23620  11.044  10.969   0.722 -0.2568  0.0362  0.1680
13517PP      PP23621   4.120   3.877   9.427 -0.0040 -0.0008  0.2583
13518PP      PP23622   1.981  13.820   1.120 -0.1493  0.3109 -0.1145
13519PP      PP23623   3.391  13.258   2.297 -0.1044  0.2555 -0.1392
13520PP      PP23624  12.833   4.669   2.322  0.4060  0.2108  0.3104
13521PP      PP23625   0.278   7.312   0.105  0.2439  0.0822 -0.1848
13522PP      PP23626  14.592  10.621   1.290 -0.1810 -0.1063 -0.3650
13523PP      PP23627   0.091   7.346  11.248  0.0236 -0.0952 -0.1042
13524PP      PP23628   0.419  12.786   9.313 -0.0496  0.0527 -0.0392
13525PP      PP23629   4.259  10.797   1.837 -0.1003  0.0587  0.0757
13526PP      PP23630  15.865  14.179   9.692 -0.1285  0.1006  0.4420
13527PP      PP23631  11.585  15.856   2.419 -0.1416  0.1617  0.0492
13528PP      PP23632   3.731   3.835   3.938 -0.1321  0.3865  0.0940
13529PP      PP23633  11.657   6.044   8.795  0.5247  0.3192 -0.0814
13530PP      PP23634   6.012   1.573  11.591  0.0120 -0.0466 -0.0513
13531PP      PP23635   8.046   5.015  10.785 -0.0173 -0.0232 -0.1058
13532PP      PP23636   0.708   9.541  10.165 -0.2118  0.1059  0.2928
13533PP      PP23637  13.305  11.731  10.538  0.0992  0.2244  0.2275
13534PP      PP23638   5.418  10.178   0.810  0.2206  0.1100 -0.1640
13535PP      PP23639   0.979   9.665   8.917  0.1262 -0.1027 -0.1297
13536PP      PP23640  14.823  15.607   0.022  0.2641  0.1247 -0.0814
13537PP      PP23641   9.155   2.169   1.011  0.0260  0.0616 -0.1949
13538PP      PP23642  12.658   1.992  10.050  0.0187 -0.0981 -0.0274
13539PP      PP23643   9.934   3.339  12.991  0.1881 -0.0811  0.0562
13540PP      PP23644   8.611  12.624  10.837  0.0210 -0.1394  0.3065
13541PP      PP23645   2.740   3.614   0.997 -0.2258  0.0763  0.0190
13542PP      PP23646  13.908   1.903   3.853  0.1083 -0.0969  0.2427
13543PP      PP23647   4.869   2.782  10.981 -0.1197 -0.1875 -0.0588
13544PP      PP23648   6.585   0.638  12.312 -0.1743  0.2149  0.1616
13545PP      PP23649  11.558   5.442  10.034 -0.0002 -0.0639 -0.2126
13546PP      PP23650  11.541   5.180   1.966  0.2689 -0.0924  0.4271
13547PP      PP23651  10.309  14.246   4.409 -0.1700  0.4600  0.0409
13548PP      PP23652  13.387  10.554   3.486 -0.4279 -0.2207 -0.1034
13549PP      PP23653  10.127   3.221  10.016 -0.3138  0.2570  0.1064
13550PP      PP23654   9.701  13.644  10.019  0.0868 -0.0852 -0.0194
13551PP      PP23655   2.618  11.296   0.558  0.2864 -0.1678  0.0354
13552PP      PP23656   0.701   2.994   1.439  0.0900  0.2541 -0.0729
13553PP      PP23657   3.038   5.059  10.906 -0.2703 -0.2830 -0.0216
13554PP      PP23658   6.241  13.423   0.055  0.0335 -0.2442 -0.0615
13555PP      PP23659   6.159   1.562   3.363  0.4365  0.0258 -0.1421
13556PP      PP23660   4.962  14.435  10.440  0.0807  0.2711  0.2415
13557PP      PP23661   9.205  15.644   0.920  0.0843 -0.0394 -0.1132
13558PP      PP23662   1.843   8.204  13.275  0.1355  0.0940  0.1811
13559PP      PP23663  11.421  11.937   3.895  0.1226  0.3081  0.0200
13560PP      PP23664   4.083  14.673  11.092  0.2112 -0.3166 -0.3666
13561PP      PP23665   4.788   4.538  11.041  0.0524 -0.0571  0.1779
13562PP      PP23666   1.047   6.365  12.098 -0.1661 -0.1683 -0.0467
13563PP      PP23667   0.367   5.090   3.286  0.0453 -0.0116 -0.3435
13564PP      PP23668  10.312  11.574   1.518  0.0164 -0.2137  0.1660
13565PP      PP23669   3.111   1.668  12.002  0.1077 -0.0725 -0.1861
13566PP      PP23670   0.906   6.139  10.107 -0.2103  0.0947  0.2223
13567PP      PP23671   6.400  14.519   3.304 -0.1037  0.0542  0.0750
13568PP      PP23672  15.331   5.283   0.646  0.0625 -0.1454 -0.0807
13569PP      PP23673  13.978  15.044  12.890 -0.4236  0.0399 -0.1484
13570PP      PP23674  14.215  13.300  10.510  0.2922 -0.2877 -0.0355
13571PP      PP23675   7.287  12.993   2.449 -0.3020  0.2131 -0.0525
13572PP      PP23676   8.608   1.073  10.152 -0.0581 -0.0411  0.1291
13573PP      PP23677  12.091  12.554   9.354  0.0117  0.1552  0.0263
13574PP      PP23678   3.763   2.346   1.842 -0.1358  0.0881  0.1987
13575PP      PP23679   6.600  12.302   4.016  0.3303 -0.0824  0.2214
13576PP      PP23680  10.759  12.701  12.185  0.1959 -0.0984  0.1882
13577PP      PP23681   3.123  11.207   2.723 -0.1679 -0.3505  0.0132
13578PP      PP23682   4.699   2.632   3.265  0.0648  0.0495  0.1208
13579PP      PP23683  15.093   6.028   9.482 -0.1658  0.3719  0.2553
13580PP      PP23684  14.080   5.110   2.919 -0.1177 -0.0791 -0.0408
13581PP      PP23685  14.494   7.371  10.054  0.3084 -0.1924 -0.0156
13582PP      PP23686   2.938   0.977   1.396 -0.0480  0.1133 -0.1596
13583PP      PP23687   2.987  12.158  10.870  0.1430  0.1815 -0.1661
13584PP      PP23688  12.191   5.468   1.912  0.1399 -0.2696 -0.0514
13585PP      PP23689  13.569   1.975   0.005 -0.0997  0.2481 -0.0491
13586PP      PP23690   8.492   0.786   4.784 -0.0553  0.1933  0.2364
13587PP      PP23691  11.723   5.668   1.217 -0.0124  0.2377  0.1379
13588PP      PP23692   3.447   1.462  13.181  0.0388 -0.1461 -0.1522
13589PP      PP23693   4.584   0.067   4.631 -0.0497 -0.1501  0.2362
13590PP      PP23694   2.044   6.082   9.211 -0.1101  0.0104 -0.0269
13591PP      PP23695  11.794   2.675   9.574 -0.1769 -0.0160 -0.3196
13592PP      PP23696  10.987  11.777  11.177  0.0448  0.1761  0.1150
13593PP      PP23697   1.772   3.332   9.485  0.4471 -0.0387 -0.1868
13594PP      PP23698   2.387   4.493  11.419  0.2077 -0.0297 -0.0088
13595PP      PP23699  13.878   5.887  12.291  0.0204 -0.0654  0.2992
13596PP      PP23700  14.705   8.840   3.139  0.2119  0.1211  0.2162
13597PP      PP23701  11.522  13.100   0.995  0.0898  0.0784  0.1612
13598PP      PP23702  13.471  12.196   9.315  0.1283  0.2830 -0.2382
13599PP      PP23703   0.696   9.955   1.084 -0.3260 -0.1025  0.0103
13600PP      PP23704   4.659   0.340  11.875  0.0400  0.1432 -0.0556
13601PP      PP23705   6.558  12.891  11.018  0.0248 -0.1997 -0.0406
13602PP      PP23706  15.638   1.950  13.019  0.1930  0.0330 -0.2302
13603PP      PP23707  10.115  15.281   9.194  0.2120  0.1603 -0.2645
13604PP      PP23708   9.001  11.932  10.200  0.1924  0.3932  0.0584
13605PP      PP23709  11.680   1.334  11.489 -0.3892 -0.1708  0.0903
13606PP      PP23710   4.118  10.319   1.638 -0.0531  0.0892  0.0621
13607PP      PP23711   1.405   5.359   2.647  0.0099 -0.0379  0.1923
13608PP      PP23712   4.399  13.222   2.231 -0.1897  0.0909 -0.1189
13609PP      PP23713   4.027   7.894  13.535 -0.0215 -0.0861  0.3216
13610PP      PP23714   5.918   4.845  11.047 -0.1879 -0.0185  0.1015
13611PP      PP23715   5.056   0.335  12.632  0.2490 -0.0656  0.2947
13612PP      PP23716  15.434   1.700   8.980 -0.1865  0.1535 -0.0513
13613PP      PP23717   1.956  15.080   9.378 -0.1190 -0.1666  0.1969
13614PP      PP23718   3.459  13.433   1.785 -0.0442 -0.1277  0.3800
13615PP      PP23719   4.470   0.491   3.025 -0.0106 -0.1082 -0.0352
13616PP      PP23720  13.402  13.175   9.709  0.3185  0.0653 -0.1179
13617PP      PP23721   8.104   7.577   2.238 -0.2758  0.1852  0.0023
13618PP      PP23722  14.924  10.054   3.017 -0.0318  0.0980 -0.0679
13619PP      PP23723   0.018   6.775  10.767  0.1113  0.0035  0.0743
13620PP      PP23724   4.525   2.513   4.207 -0.0589 -0.0510  0.1833
13621PP      PP23725   5.342   7.527  13.286  0.1959 -0.0358 -0.0384
13622PP      PP23726   1.886   5.725  12.374 -0.0403 -0.2433 -0.1172
13623PP      PP23727   5.832   9.100   4.051 -0.2880  0.1999 -0.1505
13624PP      PP23728   7.476  15.293  10.213 -0.2352 -0.0890  0.0610
13625PP      PP23729  12.832   1.300   3.502  0.0935 -0.1009 -0.1784
13626PP      PP23730  11.343   6.816  11.436  0.1551  0.2724 -0.0373
13627PP      PP23731   4.775  12.406   4.224  0.2478 -0.1812 -0.1211
13628PP      PP23732   4.023   3.679  10.568 -0.1951 -0.3434 -0.2332
13629PP      PP23733  15.088   2.275   2.236 -0.1260  0.1350  0.2416
13630PP      PP23734  12.450   3.469  12.694  0.3887 -0.0642 -0.2174
13631PP      PP23735  10.401   8.423   8.900  0.0254 -0.1129 -0.0437
13632PP      PP23736  13.918  11.020   1.749  0.0777  0.0635 -0.2156
13633PP      PP23737   2.844  10.032   6.573  0.0442  0.0715  0.3114
13634PP      PP23738   2.019   0.038  12.559 -0.2043 -0.1148 -0.0471
13635PP      PP23739   4.419   0.181   0.864  0.0379  0.0469  0.1394
13636PP      PP23740   8.041   0.727   1.273  0.1621  0.1909  0.0603
13637PP      PP23741   2.086   3.857   9.484  0.0242  0.2844 -0.1692
13638PP      PP23742  13.408   9.771  11.835  0.1556 -0.2061  0.0504
13639PP      PP23743   8.234  12.474   2.789 -0.1154  0.1234  0.0346
13640PP      PP23744   7.964   5.737   3.487 -0.0490 -0.1218 -0.1837
13641PP      PP23745  15.814  13.359   1.723  0.0332 -0.0951 -0.1956
13642PP      PP23746   2.127  14.188  10.179  0.0992 -0.1198 -0.3401
13643PP      PP23747   1.705   7.293  11.248 -0.0423 -0.1016  0.0051
13644PP      PP23748   2.486  13.506  12.470 -0.1049 -0.0875 -0.1878
13645PP      PP23749  13.465   0.028  10.025 -0.0756  0.1427  0.1973
13646PP      PP23750   0.110  12.791   2.089 -0.1071  0.2803  0.2235
13647PP      PP23751   9.867  11.582   0.023 -0.1977  0.1657 -0.0875
13648PP      PP23752  13.500   2.051   0.482  0.0418  0.0169  0.0908
13649PP      PP23753   5.750   1.994   2.616  0.1856 -0.0494  0.0863
13650PP      PP23754   3.337   2.654   0.565  0.1384 -0.3519 -0.1336
13651PP      PP23755   3.323   3.789   1.204  0.0893 -0.0532 -0.1056
13652PP      PP23756  11.522  10.493  10.501 -0.0742 -0.0397 -0.1115
13653PP      PP23757   9.700  15.346   1.978 -0.0819 -0.1165  0.3067
13654PP      PP23758  14.673  15.461  12.253 -0.0125 -0.0495  0.0190
13655PP      PP23759   9.730   0.890  13.277 -0.2278  0.1674  0.1900
13656PP      PP23760   8.747  11.983   4.902 -0.1049 -0.1938  0.1545
13657PP      PP23761  13.830  10.975  11.059  0.2538  0.0056 -0.0244
13658PP      PP23762   9.487  13.074  13.045  0.1128  0.3768  0.2957
13659PP      PP23763  13.192   7.237   8.748 -0.0322 -0.2648 -0.0747
13660PP      PP23764  15.870   3.860   1.343  0.0797 -0.1444  0.3933
13661PP      PP23765   8.742   8.814   2.744 -0.0144 -0.0196  0.4176
13662PP      PP23766   9.615   3.412   9.919 -0.0665  0.0938 -0.2512
13663PP      PP23767  15.028  14.194   3.585  0.1694 -0.0203 -0.0154
13664PP      PP23768   4.881  11.174  12.417  0.3256  0.2076  0.0305
13665PP      PP23769   6.805   5.221   1.041  0.0183 -0.0590  0.0150
13666PP      PP23770   4.229   0.220   1.454  0.0759  0.2196 -0.2381
13667PP      PP23771  10.456   9.473   3.708  0.4252 -0.0818  0.0497
13668PP      PP23772   3.067  10.565  10.452 -0.1502  0.3618  0.0233
13669PP      PP23773   9.343  11.905  13.475  0.0295  0.3581 -0.0914
13670PP      PP23774   4.616  14.476  13.229  0.2477  0.1948  0.0165
13671PP      PP23775   1.801   3.485   0.934 -0.0236  0.2957 -0.2344
13672PP      PP23776   5.118  15.123  12.684  0.0927 -0.1443  0.1121
13673PP      PP23777  14.478  14.902   2.496 -0.0746 -0.1160  0.2441
13674PP      PP23778  14.814   2.137   9.745 -0.1425  0.2657 -0.0278
13675PP      PP23779   1.681   6.396   1.653 -0.5498 -0.1033 -0.4095
13676PP      PP23780   2.831   4.529   3.167 -0.1648  0.1452  0.0547
13677PP      PP23781   4.986   4.192   4.049  0.0682 -0.1397  0.0177
13678PP      PP23782   6.199  14.137  12.853 -0.3209 -0.1984 -0.1617
13679PP      PP23783  13.713   2.413   9.111  0.0626  0.1014  0.2598
13680PP      PP23784  13.333   3.324  13.310 -0.0982 -0.1366  0.4341
13681PP      PP23785  11.392   0.223   3.497 -0.0405 -0.3916 -0.0682
13682PP      PP23786   6.126   6.533  10.086  0.1541  0.1145  0.0343
13683PP      PP23787   1.868   8.631  10.788 -0.1260 -0.2955  0.0454
13684PP      PP23788  12.198   1.388   9.598  0.1031  0.1397  0.1466
13685PP      PP23789  11.435  10.873   1.734  0.1886  0.2992 -0.0911
13686PP      PP23790   5.061   0.072  13.096 -0.3045 -0.1794  0.2133
13687PP      PP23791  13.107  13.889   2.276  0.0310  0.1288 -0.2515
13688PP      PP23792  13.350  12.948   3.539 -0.1566  0.1255 -0.0466
13689PP      PP23793  15.885   2.445   0.781 -0.1479 -0.0909  0.1832
13690PP      PP23794  15.428  14.522   0.174  0.0905 -0.4161  0.1174
13691PP      PP23795  10.861   2.176   9.643 -0.1367  0.2730  0.0896
13692PP      PP23796   4.970  14.408  11.459 -0.0557  0.2403  0.3163
13693PP      PP23797   3.472   7.958  13.338 -0.0875 -0.5293  0.0932
13694PP      PP23798   7.654   5.810   2.479  0.3401 -0.1822 -0.0023
13695PP      PP23799   2.271  14.504  11.108 -0.2114  0.2174  0.3158
13696PP      PP23800  12.268  15.274   5.064 -0.0258 -0.2455  0.2416
13697PP      PP23801   5.031   2.985  12.380  0.2980 -0.1527  0.0226
13698PP      PP23802   9.586   6.884   0.847 -0.0794  0.0634  0.1172
13699PP      PP23803  11.930  12.296   4.584  0.0043 -0.0527  0.0497
13700PP      PP23804  14.665   2.925   9.278 -0.2593 -0.0760  0.0876
13701PP      PP23805   1.355   5.351  10.992  0.1962 -0.1336 -0.0028
13702PP      PP23806  15.822   1.132   3.233  0.6826 -0.1559  0.1952
13703PP      PP23807   2.657  14.325   1.376 -0.2078  0.1014  0.0227
13704PP      PP23808   0.161  13.116  11.350  0.4651 -0.1425 -0.0634
13705PP      PP23809   8.570   5.019   1.035 -0.0275 -0.1284  0.0355
13706PP      PP23810  12.513   8.461  10.617 -0.0887 -0.1960  0.1170
13707PP      PP23811   9.980   8.267   1.949  0.0202  0.1363 -0.0751
13708PP      PP23812   0.461  11.353  11.984  0.1571 -0.1226  0.3637
13709PP      PP23813  14.042   6.093  10.984  0.3615  0.2910 -0.1005
13710PP      PP23814   5.951   7.439  11.080  0.1558  0.0826 -0.0996
13711PP      PP23815   6.704  13.308  13.224 -0.1254 -0.2536 -0.2156
13712PP      PP23816   9.693  10.230   4.221  0.0466  0.2641  0.0134
13713PP      PP23817   7.240   2.045   4.578  0.3293 -0.1817 -0.0258
13714PP      PP23818   7.610   8.217  11.223 -0.0982 -0.2019  0.1841
13715PP      PP23819  14.491  15.814   9.487  0.5324  0.0318  0.0263
13716PP      PP23820   2.218   0.738  10.282 -0.0131  0.1602  0.0640
13717PP      PP23821   0.994   6.900   3.475  0.0175  0.2044  0.0146
13718PP      PP23822   4.928   8.761  12.823  0.3973  0.0975 -0.0941
13719PP      PP23823   1.077   8.853   8.585  0.0417 -0.4624  0.3351
13720PP      PP23824   3.968   9.758   2.788 -0.0689  0.0652 -0.1236
13721PP      PP23825   6.057   1.024   9.419  0.0584 -0.0428 -0.2530
13722PP      PP23826  10.737   9.843   3.929 -0.2070  0.1760 -0.0201
13723PP      PP23827  11.964   4.624  13.493  0.1102  0.0669 -0.1606
13724PP      PP23828  13.544   7.746   3.318 -0.1843  0.0770 -0.1861
13725PP      PP23829  10.159   1.263   3.704 -0.3949  0.0056  0.1995
13726PP      PP23830   0.331   5.223   3.774  0.0765  0.1954  0.1305
13727PP      PP23831   9.365   6.486  12.735  0.1746 -0.2755 -0.1759
13728PP      PP23832  11.192   5.301  12.470 -0.2892  0.2290  0.2400
13729PP      PP23833   0.955   3.156   2.839 -0.3218 -0.2422  0.3237
13730PP      PP23834  13.124   1.469  13.196 -0.0119  0.1562  0.0352
13731PP      PP23835  12.704   9.983  10.902  0.2613 -0.1793 -0.1780
13732PP      PP23836  14.885  15.304  10.781  0.0266  0.0162  0.1092
13733PP      PP23837   8.216   3.168   1.773  0.1942 -0.3226  0.0206
13734PP      PP23838   6.721   1.019   4.941 -0.1845 -0.0798  0.4131
13735PP      PP23839  12.101   0.296  12.450  0.1770 -0.1193 -0.2698
13736PP      PP23840  12.042   3.848   9.321  0.1424 -0.2414  0.2131
13737PP      PP23841  15.277  12.502   4.493  0.2691 -0.1253 -0.0064
13738PP      PP23842  11.890   6.651   9.005  0.3375  0.2415  0.0936
13739PP      PP23843  12.643   8.691  11.256 -0.3521 -0.2632 -0.2836
13740PP      PP23844   5.257   2.133   3.962  0.1744  0.1177 -0.1324
13741PP      PP23845  11.967  12.496   0.577  0.1182 -0.1086 -0.2172
13742PP      PP23846   7.628   1.636   2.576 -0.2019 -0.0276 -0.2409
13743PP      PP23847   2.081  10.997   3.446 -0.1088 -0.3991  0.1580
13744PP      PP23848  11.329   8.058   1.637 -0.1040 -0.3632  0.2763
13745PP      PP23849  14.684   4.079  11.971 -0.1891  0.4237 -0.1584
13746PP      PP23850   3.881   2.480   0.735 -0.1607  0.0353  0.1437
13747PP      PP23851   8.985  14.501  10.727 -0.2612  0.1181 -0.3147
13748PP      PP23852   8.613  15.453   9.304  0.1206  0.0021 -0.2656
13749PP      PP23853  14.222   4.055   3.930  0.2654 -0.0729  0.1443
13750PP      PP23854   7.975   3.715  13.227 -0.3992 -0.1414  0.0988
13751PP      PP23855   8.527   7.283   0.661  0.2826 -0.1479 -0.0467
13752PP      PP23856  10.544   7.856   9.041 -0.1808 -0.0615  0.1384
13753PP      PP23857  13.380   7.625   9.915 -0.0287 -0.0773  0.0545
13754PP      PP23858   0.862   6.838   2.999  0.3440  0.2112  0.0663
13755PP      PP23859   4.283  10.467   2.206  0.1327 -0.6055 -0.2689
13756PP      PP23860  12.547  11.172  11.295  0.0972 -0.1043  0.0776
13757PP      PP23861   9.154  10.212  13.463  0.1578 -0.0060  0.1465
13758PP      PP23862   0.580  11.527  12.485  0.3172 -0.0252 -0.0214
13759PP      PP23863  12.629   1.827   3.271 -0.1946 -0.2148  0.3295
13760PP      PP23864   6.292   2.321   1.755 -0.1177 -0.3033 -0.3820
13761PP      PP23865  11.684   1.690   1.659  0.1886 -0.1560  0.0053
13762PP      PP23866  13.178   6.176  10.959 -0.2680 -0.0638 -0.0521
13763PP      PP23867   4.712   0.737  11.133  0.0592  0.0184 -0.0572
13764PP      PP23868   6.199   0.681   3.907 -0.1359  0.0084  0.3038
13765PP      PP23869   3.782   8.292   0.169 -0.0185  0.0879 -0.1531
13766PP      PP23870  13.398   6.321   2.650 -0.1703 -0.1114  0.2956
13767PP      PP23871   2.089  15.729   4.351  0.2268  0.1235  0.0215
13768PP      PP23872   1.281   4.216   1.026  0.0414  0.0686  0.1279
13769PP      PP23873   7.402   8.041   8.997 -0.0487  0.1644  0.1114
13770PP      PP23874  12.553  11.052   4.385 -0.0885 -0.3205  0.0738
13771PP      PP23875   1.778   7.153   0.512  0.0284  0.1821 -0.1985
13772PP      PP23876   6.306   1.699   2.499  0.1682 -0.2462  0.0041
13773PP      PP23877   9.573  12.739  10.620  0.2080  0.1117  0.3580
13774PP      PP23878   3.001   9.417   2.750 -0.0905 -0.2559 -0.3825
13775PP      PP23879  10.887   3.653   9.137 -0.2452  0.0948  0.0076
13776PP      PP23880   2.898   3.149  11.998 -0.3587 -0.1339  0.0881
13777PP      PP23881   7.625   9.794   2.647  0.2415  0.1104 -0.0088
13778PP      PP23882  14.518  12.503  11.061  0.2916  0.1570 -0.1534
13779PP      PP23883   5.326  13.518  10.241 -0.0737 -0.0621  0.1036
13780PP      PP23884  11.413   8.892   8.820 -0.3112  0.0422 -0.0716
13781PP      PP23885  12.739   5.329   3.263  0.3616 -0.1917 -0.1416
13782PP      PP23886   4.238   9.443  10.697 -0.1408 -0.1747 -0.0286
13783PP      PP23887   6.672   3.015   1.307 -0.1559  0.0505  0.3680
13784PP      PP23888   1.034  15.142   2.158 -0.0506 -0.1998 -0.2095
13785PP      PP23889   7.288  12.598  12.742  0.2439  0.2785 -0.1813
13786PP      PP23890   6.779  13.186   0.827 -0.1207 -0.1255  0.0723
13787PP      PP23891   4.081   6.686   4.320  0.0796 -0.2444 -0.0613
13788PP      PP23892   0.251  11.740  13.327  0.2801  0.0689 -0.0333
13789PP      PP23893  12.145  14.573   0.215 -0.0455 -0.0276 -0.1377
13790PP      PP23894  11.411   6.492   0.115  0.0256 -0.0640 -0.0241
13791PP      PP23895   1.934   8.665   9.776 -0.0774 -0.1974 -0.0957
13792PP      PP23896  14.798   4.563  11.654  0.2738 -0.2547  0.1792
13793PP      PP23897   7.768  13.747   4.731 -0.1071  0.2894  0.0066
13794PP      PP23898   7.665  15.623   0.075  0.0127  0.0333  0.3915
13795PP      PP23899   6.079  13.221   2.627  0.3265  0.3236 -0.0244
13796PP      PP23900   5.652   4.950  11.934 -0.0898 -0.0006 -0.1454
13797PP      PP23901  15.482  12.632   0.202  0.0721 -0.1149  0.4519
13798PP      PP23902   3.683  10.167   3.761  0.3640 -0.1801  0.0589
13799PP      PP23903   4.772  12.980   1.109 -0.2538 -0.0265 -0.1574
13800PP      PP23904  12.997   1.276  11.976 -0.0015  0.2033 -0.2340
13801PP      PP23905   7.454  12.683   3.883 -0.0707 -0.2725  0.0782
13802PP      PP23906  14.088   2.829  11.984 -0.0578 -0.2406  0.0448
13803PP      PP23907   5.620   4.695  12.363  0.1128  0.1479  0.0064
13804PP      PP23908   0.817   1.687  12.949  0.0530 -0.0675  0.0751
13805PP      PP23909  13.006   1.543   1.050 -0.2586 -0.0002  0.1678
13806PP      PP23910  15.145  13.639   9.979 -0.0039  0.3458 -0.2696
13807PP      PP23911   3.423   4.656  13.312 -0.1536 -0.1146 -0.0717
13808PP      PP23912   9.625   3.173  11.352 -0.0501 -0.3526  0.2163
13809PP      PP23913   8.937   8.910  10.937 -0.0817 -0.0825 -0.2916
13810PP      PP23914   8.168   0.317  12.540 -0.1467  0.2059  0.1632
13811PP      PP23915  14.746   6.516   2.035 -0.0495 -0.0713 -0.0937
13812PP      PP23916   6.902  12.337  10.638  0.4839  0.1497  0.1286
13813PP      PP23917   8.551   3.718   9.160  0.1588 -0.4200 -0.1647
13814PP      PP23918  11.067   7.515  11.051  0.0589  0.2032 -0.1832
13815PP      PP23919  15.824   0.479   1.883  0.3146 -0.0592 -0.0956
13816PP      PP23920  10.230  13.735   3.634 -0.0046 -0.3604  0.1384
13817PP      PP23921   6.188  14.832   4.024 -0.1785  0.1275 -0.1976
13818PP      PP23922   9.334   1.539   0.585  0.1564  0.0076 -0.1084
13819PP      PP23923  10.407  15.009   2.358  0.1322  0.0212 -0.0486
13820PP      PP23924   6.701  11.694   0.259  0.2173  0.3145 -0.1787
13821PP      PP23925  15.540   3.702  13.380 -0.0288 -0.1746 -0.2115
13822PP      PP23926   5.514   4.812   4.242 -0.2155  0.2044 -0.0376
13823PP      PP23927   6.613   2.887  12.026  0.0831  0.2405  0.1263
13824PP      PP23928   8.829   8.564  11.375 -0.1607  0.0254  0.0589
13825PP      PP23929   4.403  10.015   9.611 -0.1430 -0.0405 -0.0538
13826PP      PP23930  12.107  10.433   0.906  0.1893 -0.2608  0.1640
13827PP      PP23931  15.214   9.138   0.282 -0.0086 -0.1330 -0.2161
13828PP      PP23932   5.439  15.460   1.254  0.0600 -0.2060 -0.0499
13829PP      PP23933   4.807  10.225  12.520 -0.0470 -0.1046 -0.1214
13830PP      PP23934  15.807  11.522  11.511  0.3668 -0.1386  0.0200
13831PP      PP23935  15.416   3.452   1.737 -0.2626 -0.2933  0.1109
13832PP      PP23936   1.098   5.903   2.918  0.2348  0.0530  0.4353
13833PP      PP23937   7.699  14.497  12.211  0.2181 -0.0963  0.0336
13834PP      PP23938  11.427   1.560  11.938 -0.2485  0.0624  0.0644
13835PP      PP23939   6.907   3.415  11.299 -0.1328 -0.1565 -0.0930
13836PP      PP23940  11.985  15.458   1.166  0.1632 -0.0375 -0.0144
13837PP      PP23941  14.911  14.205   2.154 -0.0672  0.0601  0.1015
13838PP      PP23942  13.271   2.295  10.109  0.0211  0.0325 -0.1415
13839PP      PP23943  10.984   9.554   9.451  0.0837 -0.1284  0.1431
13840PP      PP23944   0.594  12.143  10.339 -0.3088 -0.1580  0.1588
13841PP      PP23945  12.575   4.534  12.417 -0.0764 -0.0580  0.1580
13842PP      PP23946  11.674  10.434   0.064  0.0787  0.0645 -0.1062
13843PP      PP23947   0.265  14.482   3.498 -0.3887  0.3345 -0.1632
13844PP      PP23948   7.814   0.916   4.851 -0.0279  0.0816 -0.0410
13845PP      PP23949   0.738  14.330   3.448 -0.1201  0.4178 -0.1325
13846PP      PP23950   7.254   2.843  12.801 -0.3533  0.1134  0.0906
13847PP      PP23951   0.634   2.368  12.207 -0.0344  0.3928  0.1007
13848PP      PP23952   3.494  13.981  10.756 -0.0470  0.0394 -0.2940
13849PP      PP23953   7.984   5.853   1.911  0.1152  0.0204 -0.0845
13850PP      PP23954  15.559   2.960  12.393  0.0338  0.0884  0.1578
13851PP      PP23955   6.010   8.653   4.369  0.0187  0.1548  0.0944
13852PP      PP23956   5.547   3.919   9.577  0.2223  0.1715 -0.0342
13853PP      PP23957  14.815  11.955   1.906  0.4024  0.2362  0.1719
13854PP      PP23958   1.185   5.771   2.448 -0.2887 -0.0723  0.0317
13855PP      PP23959   4.188   0.192  10.468  0.2009  0.1151  0.0858
13856PP      PP23960   6.908   9.525  11.705  0.0535 -0.3145 -0.0464
13857PP      PP23961  13.321   3.621   1.569  0.0246  0.0172  0.1364
13858PP      PP23962  15.826   0.904   3.992 -0.1033  0.4450 -0.1246
13859PP      PP23963  11.044  10.893  12.402 -0.2458 -0.3293  0.0507
13860PP      PP23964  11.418   6.897   9.233  0.1714 -0.1222 -0.3760
13861PP      PP23965   2.775   6.675  10.651  0.2094  0.2381 -0.1663
13862PP      PP23966   3.287  12.311   4.150 -0.0066 -0.1472 -0.3622
13863PP      PP23967  10.763   8.571   9.338  0.0419  0.1532 -0.1053
13864PP      PP23968   6.039   1.164  12.954 -0.1466 -0.1057 -0.3606
13865PP      PP23969   7.717   5.472  12.625 -0.0073  0.0177  0.0671
13866PP      PP23970   5.190   2.741   3.240 -0.0683 -0.3637 -0.1409
13867PP      PP23971  14.120   8.521  10.498  0.0727 -0.2824  0.1933
13868PP      PP23972  11.166   4.663  11.205  0.3645  0.4462  0.0923
13869PP      PP23973   0.334   7.423  12.729 -0.1665 -0.2274  0.1795
13870PP      PP23974  14.136   8.037  10.200 -0.2090 -0.1817 -0.1804
13871PP      PP23975  10.947   4.076   0.411 -0.1593 -0.0417 -0.0985
13872PP      PP23976   8.328  12.958   3.011  0.0418 -0.2318  0.0368
13873PP      PP23977  10.754   7.773   3.286  0.2495 -0.2863  0.0732
13874PP      PP23978   8.437  12.044   4.465 -0.2583  0.1864 -0.2960
13875PP      PP23979   6.327   9.138   1.179 -0.0703  0.1707 -0.0446
13876PP      PP23980   6.878   9.598   2.372  0.0366  0.1758 -0.0445
13877PP      PP23981  15.567   7.619   1.438 -0.0245 -0.3436 -0.1793
13878PP      PP23982   8.984  14.645   4.015  0.2982  0.2520 -0.3252
13879PP      PP23983  13.993   8.399   9.024 -0.0539 -0.0724 -0.2769
13880PP      PP23984   8.659   3.129  12.189 -0.1555 -0.3024 -0.1937
13881PP      PP23985  14.125   3.140  12.732  0.0398 -0.0718  0.3444
13882PP      PP23986  12.766  15.080   0.896 -0.1241 -0.0406 -0.0894
13883PP      PP23987   8.196  11.076   4.031  0.0113 -0.1326 -0.0089
13884PP      PP23988  11.719  13.200   9.573 -0.0097  0.0910 -0.0695
13885PP      PP23989   7.770  11.776   4.013  0.1549  0.2178  0.3131
13886PP      PP23990   5.130   4.031   2.582 -0.1555 -0.0077 -0.0970
13887PP      PP23991  14.133  12.491   9.973 -0.3931  0.0005 -0.1488
13888PP      PP23992   8.668   5.001   3.909 -0.1572 -0.1016 -0.1107
13889PP      PP23993   9.511   4.535   2.392  0.1072  0.0624 -0.0560
13890PP      PP23994  10.575  10.355   4.094  0.0556  0.0631 -0.2804
13891PP      PP23995   0.805  12.399  11.209  0.1545  0.1991  0.1506
13892PP      PP23996   6.640  15.406   2.370 -0.1721 -0.5115  0.2718
13893PP      PP23997   4.733  10.203  10.927  0.0639  0.2258  0.4580
13894PP      PP23998  11.224  14.032  10.976  0.1380 -0.1988 -0.3276
13895PP      PP23999  12.315   8.662   1.035  0.1818  0.1424  0.0423
13896PP      PP24000   4.540  15.356  12.911  0.4074 -0.1965 -0.4351
13897PP      PP24001  10.787   6.535   7.777 -0.1387  0.0453 -0.1949
13898PP      PP24002  11.622   9.414   3.851 -0.2535  0.1402  0.1616
13899PP      PP24003   9.744   1.067  11.670 -0.1721 -0.1283 -0.3984
13900PP      PP24004  12.632   9.018   9.837 -0.0233 -0.1819 -0.2124
13901PP      PP24005   8.986   9.857  13.087 -0.1605 -0.0502  0.0573
13902PP      PP24006   5.199  11.362  10.296  0.2510 -0.1375  0.0213
13903PP      PP24007   8.186   8.980   3.601 -0.0741  0.0880  0.5065
13904PP      PP24008   6.429   0.132   1.559 -0.0548 -0.0889 -0.2921
13905PP      PP24009   3.105   1.772   1.734 -0.1445  0.0271  0.1240
13906PP      PP24010   5.685  10.398   1.155 -0.0470  0.1071 -0.3125
13907PP      PP24011   8.080  14.086  12.804 -0.2207 -0.1090 -0.0631
13908PP      PP24012   0.004   9.816  10.478  0.0959 -0.2738 -0.0219
13909PP      PP24013   9.200  14.366   1.809  0.3049 -0.0201  0.2000
13910PP      PP24014   1.464   8.497  13.275 -0.0015  0.3477  0.2163
13911PP      PP24015   6.530   4.867  12.842  0.0876  0.2769  0.0902
13912PP      PP24016  14.383   8.632   2.447 -0.0029 -0.0087  0.1734
13913PP      PP24017   7.626  12.218   4.087 -0.1107  0.1180 -0.1905
13914PP      PP24018  11.022  14.139  13.476  0.4342  0.1252 -0.0457
13915PP      PP24019   7.014  13.572   4.505 -0.2304 -0.0223 -0.3925
13916PP      PP24020  10.153  15.856   4.148 -0.3734  0.3229 -0.0025
13917PP      PP24021   1.436   5.793   9.568  0.2278 -0.0543 -0.0215
13918PP      PP24022   3.210   6.400   1.321 -0.1152  0.0512  0.0682
13919PP      PP24023   4.523   5.240  12.386 -0.5183  0.0791  0.1011
13920PP      PP24024   5.303   9.069   0.053 -0.1048 -0.2870  0.2860
13921PP      PP24025  15.884   2.050   1.125 -0.3185  0.1274 -0.1616
13922PP      PP24026   1.391   4.234   1.844 -0.1083  0.1527  0.0015
13923PP      PP24027   8.460   7.079   9.420  0.3513 -0.1331 -0.1056
13924PP      PP24028   3.802   3.542   3.546 -0.1656  0.2784 -0.0917
13925PP      PP24029  13.832  11.424   1.494 -0.0041  0.1466 -0.2187
13926PP      PP24030   6.886  14.051   3.676 -0.0157 -0.0403  0.0913
13927PP      PP24031   6.718   8.214   9.668 -0.0908  0.1318  0.2512
13928PP      PP24032  10.730  13.085   2.965  0.1242  0.0859 -0.0200
13929PP      PP24033   0.587   3.533  12.752  0.1640  0.0693 -0.1602
13930PP      PP24034   3.694  11.775  12.543  0.1884  0.0296 -0.0869
13931PP      PP24035   5.726  10.175   4.431 -0.0620  0.0069 -0.1753
13932PP      PP24036   6.751   9.990   0.753 -0.1311  0.0195 -0.0970
13933PP      PP24037   6.487   5.643   1.359  0.0178 -0.1311  0.2256
13934PP      PP24038   7.822   2.014  11.361  0.1757  0.1087  0.4400
13935PP      PP24039   1.537   2.454  11.524 -0.1885  0.2604  0.4243
13936PP      PP24040   9.806   8.385  10.294  0.1153 -0.2926 -0.1108
13937PP      PP24041  13.262   5.993  10.503  0.2649 -0.0258  0.1599
13938PP      PP24042   9.787   2.264   4.665 -0.2824 -0.0658  0.0935
13939PP      PP24043   1.864  10.194   4.497 -0.1804  0.6985 -0.2746
13940PP      PP24044   7.305   2.177  11.464  0.0024  0.1469  0.2882
13941PP      PP24045  11.228   9.605   1.506 -0.0358  0.2676 -0.1929
13942PP      PP24046   5.610   0.365  13.464  0.0346  0.0312  0.1911
13943PP      PP24047  11.767  12.594  12.409 -0.2072  0.0184  0.0447
13944PP      PP24048  13.192   9.804   3.906  0.1425 -0.1477  0.2061
13945PP      PP24049   0.078  14.726  11.893 -0.0223  0.0810  0.1411
13946PP      PP24050   8.859   5.738   4.225 -0.1972 -0.0945 -0.3317
13947PP      PP24051  10.706   1.772   3.166 -0.0379 -0.1272 -0.1183
13948PP      PP24052  14.079   3.719  13.395 -0.0631  0.2036  0.0342
13949PP      PP24053   4.107   1.520   9.864  0.0120 -0.1200  0.0420
13950PP      PP24054   9.602  12.330   9.704  0.0156 -0.2177  0.1779
13951PP      PP24055  15.280   9.319   1.338 -0.1380  0.0468  0.1125
13952PP      PP24056  10.264  15.513  11.336  0.0184 -0.0350 -0.0086
13953PP      PP24057   8.234  10.385  11.372 -0.1700 -0.0100 -0.1022
13954PP      PP24058   9.544   5.088   8.183  0.0891  0.5362 -0.1164
13955PP      PP24059   3.952  12.341   9.148 -0.0455  0.3183  0.2032
13956PP      PP24060   5.396  10.836  12.158  0.0999 -0.1938 -0.0311
13957PP      PP24061  12.435   5.428   0.953 -0.4613  0.1173 -0.1415
13958PP      PP24062   6.960  10.645   3.125  0.0286 -0.1751 -0.0731
13959PP      PP24063  10.202  10.398   2.143 -0.0642  0.1419 -0.0130
13960PP      PP24064   5.650  13.999  13.003 -0.1379  0.0123  0.1085
13961PP      PP24065   8.633   4.559   3.326  0.2675 -0.1455  0.0146
13962PP      PP24066   4.792   5.039   8.943 -0.0210  0.0241  0.0706
13963PP      PP24067  11.012  12.496  11.841 -0.0612  0.0676  0.1301
13964PP      PP24068  12.850   9.512  12.923 -0.0524 -0.4493  0.0133
13965PP      PP24069  14.178   6.073   3.197 -0.0682 -0.1918  0.0617
13966PP      PP24070  11.636  11.802   1.005  0.0304 -0.1892 -0.1933
13967PP      PP24071   8.214  11.807  11.641 -0.0108 -0.0066  0.0650
13968PP      PP24072  11.956   7.895   1.600 -0.2926 -0.1028  0.0523
13969PP      PP24073   5.575   3.646   2.732  0.0343 -0.2624 -0.3877
13970PP      PP24074   4.886  15.077   0.419 -0.1142  0.0265 -0.1631
13971PP      PP24075   2.494   1.107   4.088 -0.1555  0.2796 -0.1347
13972PP      PP24076   9.163   3.343   2.994 -0.0881  0.0593  0.2426
13973PP      PP24077  13.323  13.102   1.554 -0.1560 -0.2004 -0.2486
13974PP      PP24078  13.689  12.819  10.681  0.3072 -0.1530  0.0283
13975PP      PP24079   7.845   7.277   0.212 -0.1141  0.2177  0.0712
13976PP      PP24080   2.151   0.836   0.272 -0.1589 -0.0152  0.0188
13977PP      PP24081   7.838  14.025   8.939  0.3695  0.3129  0.3119
13978PP      PP24082  15.211   8.086  10.752 -0.2098 -0.1951 -0.1275
13979PP      PP24083   5.056   7.332   9.147 -0.0605  0.1290  0.0246
13980PP      PP24084   2.224  10.830   9.910  0.0426  0.0888 -0.1075
13981PP      PP24085   8.960   8.557  13.315  0.1160 -0.0581 -0.3497
13982PP      PP24086   7.883   4.468   4.166  0.0751  0.1117 -0.0630
13983PP      PP24087  12.456  10.611   9.389  0.0917 -0.0148 -0.1529
13984PP      PP24088   8.400  11.310   9.584 -0.2820  0.1272 -0.1553
13985PP      PP24089   9.649   0.406   1.986 -0.1051 -0.1083  0.0410
13986PP      PP24090   5.044  10.804   4.532  0.2442  0.1104  0.1516
13987PP      PP24091   7.235  12.360   0.473 -0.0340  0.3464 -0.0245
13988PP      PP24092   2.201   7.978   3.267 -0.1817  0.1952 -0.1775
13989PP      PP24093   6.252   7.619  12.555  0.2020 -0.4310 -0.1343
13990PP      PP24094   2.211   8.711  10.351 -0.1018  0.0859  0.2329
13991PP      PP24095  14.714   9.983   1.151 -0.2540  0.2415 -0.2853
13992PP      PP24096   8.907   2.970   1.315  0.1381 -0.1963  0.0636
13993PP      PP24097  15.187   0.649  13.483  0.0377 -0.0545 -0.0010
13994PP      PP24098  11.123   5.992   3.164  0.0843  0.0115 -0.4113
13995PP      PP24099   9.437  12.469  11.196 -0.0862 -0.0894 -0.0827
13996PP      PP24100   1.577   2.875   1.830 -0.0783  0.0201 -0.2808
13997PP      PP24101   5.482   7.449   4.258 -0.4652 -0.1961 -0.0495
13998PP      PP24102   2.423  13.259   9.936 -0.0167  0.0383  0.2493
13999PP      PP24103  12.890  10.964   2.212 -0.4159  0.2704  0.0082
14000PP      PP24104  14.321  13.686   2.341  0.1031  0.1518  0.0255
14001PP      PP24105   9.956   5.120   7.924  0.1619 -0.0944 -0.1734
14002PP      PP24106  13.905   3.872  12.622 -0.1783 -0.2003  0.2656
14003PP      PP24107   4.136   6.904   8.193  0.3539  0.1111 -0.1600
14004PP      PP24108  12.960   2.868   3.294 -0.1189 -0.0476 -0.1978
14005PP      PP24109  14.151  10.360   2.092  0.4140  0.0967 -0.2598
14006PP      PP24110   5.600   2.606   2.241 -0.1140 -0.1356 -0.1216
14007PP      PP24111   6.399   5.307  12.273 -0.0159  0.3226  0.1557
14008PP      PP24112   6.776  10.956  11.639  0.2704  0.0147 -0.1562
14009PP      PP24113   2.186   9.117  10.616 -0.0182  0.1146 -0.1776
14010PP      PP24114   2.180  15.548  10.044 -0.1738 -0.1961 -0.1482
14011PP      PP24115   8.177   5.782  11.788  0.2254  0.2745 -0.2226
14012PP      PP24116   6.620   5.869   8.295 -0.0386  0.1821 -0.2123
14013PP      PP24117   2.424   8.341   9.968  0.0124  0.1220 -0.0505
14014PP      PP24118  15.289   0.026   0.616 -0.2483 -0.0756 -0.2467
14015PP      PP24119   8.983  13.839   1.983 -0.0367  0.0580  0.1659
14016PP      PP24120  11.537  12.207   0.768 -0.3119 -0.0668  0.2746
14017PP      PP24121   2.403  13.125  12.888  0.1431  0.3519  0.1422
14018PP      PP24122   1.366   7.082   1.344  0.1360 -0.4171  0.1874
14019PP      PP24123   8.040  10.498  13.363 -0.0917 -0.4467  0.0939
14020PP      PP24124   5.179   4.287   9.315  0.0403  0.2834 -0.0013
14021PP      PP24125   5.441  13.562  12.512 -0.1226 -0.0188 -0.1736
14022PP      PP24126  12.374   4.311   0.423  0.0255  0.0208 -0.1890
14023PP      PP24127  13.593  14.282   4.686 -0.3524  0.4412  0.2864
14024PP      PP24128   4.098   5.209   1.608 -0.0673 -0.0927 -0.0093
14025PP      PP24129  13.335  13.176   4.248 -0.0697  0.6020 -0.0873
14026PP      PP24130  11.541   8.380  10.683  0.1924 -0.1749  0.0875
14027PP      PP24131   8.682  14.328   1.016 -0.0724  0.1323 -0.1529
14028PP      PP24132  11.852  10.932   2.048 -0.0109 -0.1377 -0.2480
14029PP      PP24133  15.083   1.969   3.745  0.0430 -0.3253 -0.2712
14030PP      PP24134   5.242   2.421   4.772  0.2274 -0.0817 -0.1888
14031PP      PP24135  14.092   2.838   0.629  0.0105 -0.3000 -0.0615
14032PP      PP24136   0.334   3.460   8.554 -0.1380  0.1227  0.1088
14033PP      PP24137   5.717   5.838  13.126 -0.0010  0.0476  0.1600
14034PP      PP24138   8.150  14.543  10.822 -0.0960  0.0232 -0.1804
14035PP      PP24139  15.371   1.938   9.444  0.0544  0.1211 -0.5410
14036PP      PP24140   3.803  12.560   2.725  0.2508 -0.0937 -0.0220
14037PP      PP24141   4.768   0.203   1.303  0.1470 -0.3522 -0.0099
14038PP      PP24142   9.837   9.749  13.416  0.0876  0.4503  0.0046
14039PP      PP24143   4.338   4.446   4.520  0.1149 -0.0683 -0.2332
14040PP      PP24144  10.112   1.395  10.363 -0.0289  0.0495 -0.3395
14041PP      PP24145  15.220   6.337   8.357 -0.3147 -0.3052  0.2036
14042PP      PP24146   1.426  13.830  11.244 -0.2939  0.1200 -0.4818
14043PP      PP24147   9.591  12.680  12.691 -0.1623 -0.0050  0.0191
14044PP      PP24148  13.240   0.453   4.386  0.2550  0.0846  0.0787
14045PP      PP24149   4.324   6.255   1.968  0.2446 -0.0275  0.0933
14046PP      PP24150  15.441  11.741  11.053 -0.0668 -0.0449  0.2910
14047PP      PP24151  15.646   4.956   0.232  0.0289  0.0798  0.3196
14048PP      PP24152   2.923  14.311   0.764 -0.0736 -0.2995 -0.0983
14049PP      PP24153  14.154  10.552  10.096 -0.2015  0.4230 -0.0011
14050PP      PP24154   5.512   8.971   1.297  0.0580  0.2373  0.0541
14051PP      PP24155   9.447   3.634   0.914 -0.0784 -0.0012  0.1141
14052PP      PP24156  11.143   0.353  13.051  0.1857  0.0979 -0.0232
14053PP      PP24157   8.332   3.651   1.761  0.0793  0.1539 -0.4130
14054PP      PP24158   6.644   5.186   2.400  0.0677 -0.1928  0.3167
14055PP      PP24159   7.768  12.453  12.871  0.0904  0.0766 -0.0640
14056PP      PP24160  13.949   4.315   9.350  0.0413  0.3153 -0.2116
14057PP      PP24161  12.781   9.245   2.372  0.1988 -0.1519  0.0909
14058PP      PP24162   0.587   0.550  13.529  0.1957 -0.0090 -0.0730
14059PP      PP24163   8.174  14.933   9.785  0.1338  0.0642  0.0657
14060PP      PP24164   4.566   6.976  13.296  0.2862 -0.0325  0.0203
14061PP      PP24165  15.342   1.939  11.734 -0.0120 -0.2448 -0.1750
14062PP      PP24166  11.979  10.313   1.434 -0.1680  0.0342 -0.2241
14063PP      PP24167   6.542   0.592   3.364 -0.0402  0.0287  0.1255
14064PP      PP24168  14.810  14.909   3.384  0.0615  0.0900 -0.0718
14065PP      PP24169  11.036  15.351   4.009  0.0059 -0.2193 -0.0005
14066PP      PP24170  14.845  15.728   0.502  0.0184 -0.4288 -0.1480
14067PP      PP24171   2.602  14.088   8.561 -0.0717  0.1628  0.0275
14068PP      PP24172   1.542  10.997  10.113  0.0656 -0.0890 -0.0042
14069PP      PP24173  10.489   4.357  13.142 -0.0923 -0.0623  0.0596
14070PP      PP24174   7.198  14.516   0.463  0.0548  0.3331 -0.0364
14071PP      PP24175   6.193  13.421   3.392  0.0891  0.1586  0.0581
14072PP      PP24176   8.293   4.024  11.751 -0.1301 -0.0506 -0.0668
14073PP      PP24177   1.808   9.085  12.150  0.0020  0.0671 -0.0567
14074PP      PP24178   9.992  15.799   2.082  0.0888 -0.1373  0.0764
14075PP      PP24179   0.964   3.938   1.787 -0.1815 -0.0839 -0.2735
14076PP      PP24180   3.327   3.528   2.214 -0.1973 -0.1739  0.2246
14077PP      PP24181  14.228   9.020   3.258 -0.2630  0.0665  0.1520
14078PP      PP24182   2.599  12.509   1.585  0.1874 -0.0961  0.0608
14079PP      PP24183   3.970   4.972   1.112 -0.2369 -0.0390 -0.0387
14080PP      PP24184   1.129  11.548  12.052 -0.0403 -0.0431  0.2593
14081PP      PP24185  15.006  11.880   1.291  0.0794 -0.2596  0.0937
14082PP      PP24186   4.873   1.143   3.971  0.0762 -0.0254 -0.1971
14083PP      PP24187   1.378  13.433   2.682 -0.1314  0.0591  0.1580
14084PP      PP24188  15.590   5.053  10.900 -0.2130  0.1075  0.0823
14085PP      PP24189  13.699   2.604   4.272  0.0516  0.0685  0.0471
14086PP      PP24190  12.990  14.371   3.608 -0.0524 -0.2438  0.0357
14087PP      PP24191  15.748   0.261   3.160  0.1024  0.4852  0.0973
14088PP      PP24192   0.370  12.276   2.960  0.0496 -0.0346 -0.2327
14089PP      PP24193   0.098   1.670   3.063 -0.0806  0.0171  0.2065
14090PP      PP24194  13.085   4.044   3.073  0.1657 -0.1230 -0.0132
14091PP      PP24195  12.698   0.557  12.685 -0.0864 -0.2897  0.0020
14092PP      PP24196   6.549  14.281  11.792 -0.3625 -0.2980 -0.0370
14093PP      PP24197  14.802  12.748   2.851 -0.1271  0.0212  0.1248
14094PP      PP24198  11.524   4.251  10.768 -0.1962 -0.0729  0.3032
14095PP      PP24199   7.695  12.033  12.047  0.1600  0.2064  0.1857
14096PP      PP24200  10.471   2.221   1.430  0.2015  0.0031 -0.0686
14097PP      PP24201  13.975  12.233   1.739  0.2054  0.2128 -0.1610
14098PP      PP24202   2.218   8.046   1.367  0.0104  0.3712 -0.1301
14099PP      PP24203  11.522  15.348  11.693  0.0369  0.1123  0.1704
14100PP      PP24204  10.545   1.379   9.959  0.1428 -0.1436 -0.1873
14101PP      PP24205   3.597   5.795  11.718 -0.1443  0.2033 -0.0377
14102PP      PP24206   5.714   8.305  12.711  0.2038 -0.1601 -0.1303
14103PP      PP24207   2.220  12.429   2.044 -0.0215  0.1972 -0.0503
14104PP      PP24208  13.557   2.918  10.881 -0.2299 -0.1443 -0.1515
14105PP      PP24209   6.511  11.911  12.929 -0.0723 -0.1190 -0.0425
14106PP      PP24210  13.530   5.732   1.656  0.6280 -0.1625 -0.0617
14107PP      PP24211   0.792   6.591   2.530 -0.1229 -0.2651  0.1766
14108PP      PP24212   7.271  11.728   1.429 -0.0706  0.0027  0.0853
14109PP      PP24213   2.588   2.941   0.158  0.1425 -0.5812 -0.0959
14110PP      PP24214  15.195  12.178  10.089  0.2133 -0.2866  0.0003
14111PP      PP24215   7.153  12.745   2.061 -0.2527 -0.2489  0.0236
14112PP      PP24216   2.011   3.353   3.795  0.2332 -0.3689  0.3062
14113PP      PP24217   3.777  13.768   2.128 -0.1045 -0.1899 -0.0285
14114PP      PP24218   8.788   6.263  10.676 -0.0646  0.1621 -0.1691
14115PP      PP24219   0.633   3.238  12.312  0.1071 -0.2504  0.1700
14116PP      PP24220  10.857   9.845  11.605  0.1434 -0.3184 -0.2593
14117PP      PP24221  11.607   0.415   0.304 -0.0213 -0.0461 -0.7043
14118PP      PP24222   9.345   1.838   4.728  0.0174  0.0984  0.4640
14119PP      PP24223   6.463  14.048   2.067 -0.2117  0.0677  0.0082
14120PP      PP24224   0.350  11.403   3.446  0.2379 -0.0729 -0.1826
14121PP      PP24225  14.492  13.625   3.482 -0.1212  0.6602 -0.0954
14122PP      PP24226  12.173   8.613   9.154  0.2026 -0.1699  0.0503
14123PP      PP24227   8.783   5.459   1.792 -0.2218 -0.1954 -0.0194
14124PP      PP24228  10.150   7.166  13.217  0.0926 -0.2296  0.1662
14125PP      PP24229  10.596  11.125   1.034 -0.0163  0.1627  0.0321
14126PP      PP24230   2.007   4.426   9.655  0.1912 -0.4999  0.0502
14127PP      PP24231  13.894   6.533   9.589  0.1027  0.0351 -0.1187
14128PP      PP24232   9.822   4.556   0.093  0.0424 -0.0324  0.1461
14129PP      PP24233   0.846   9.100   1.419 -0.1454  0.3636 -0.1922
14130PP      PP24234   7.566   4.760  10.925  0.0143  0.0860  0.1784
14131PP      PP24235   6.784   6.729   1.463 -0.0402 -0.0784  0.2621
14132PP      PP24236   2.994   8.573  10.870  0.1677  0.1989  0.1037
14133PP      PP24237  13.707   6.934  12.161 -0.1321 -0.3517  0.0275
14134PP      PP24238  12.892   4.585  10.834  0.0577 -0.0663 -0.0967
14135PP      PP24239   3.391   4.746   4.564 -0.1505  0.1020  0.1497
14136PP      PP24240  13.986   7.618   9.999  0.3671 -0.2205 -0.0226
14137PP      PP24241  11.626   1.237   9.811 -0.1855  0.0400  0.1845
14138PP      PP24242   8.359   7.236   0.202 -0.2232  0.0451 -0.0420
14139PP      PP24243   4.300   2.742   0.709  0.0166 -0.0813 -0.3167
14140PP      PP24244   7.025   1.144   3.145 -0.0424  0.0820  0.0190
14141PP      PP24245   3.600   8.520   0.572  0.3308 -0.1963 -0.1994
14142PP      PP24246  14.375   3.457  10.715  0.1474  0.0378  0.0294
14143PP      PP24247  12.897  14.875  13.012  0.3902  0.1849 -0.1161
14144PP      PP24248   1.173  15.876   3.460  0.2558 -0.1692 -0.0613
14145PP      PP24249  12.640   5.263   1.416  0.4389 -0.4396 -0.0151
14146PP      PP24250  12.776   9.774   3.635  0.2156 -0.1532  0.0021
14147PP      PP24251   8.258  14.724   3.623 -0.2657  0.0734  0.1201
14148PP      PP24252   8.750   6.301   1.223 -0.0067 -0.0232  0.3640
14149PP      PP24253   7.832  14.259   1.904 -0.3680  0.0475 -0.0789
14150PP      PP24254  14.702  11.918   3.869 -0.2981 -0.0984 -0.0278
14151PP      PP24255   0.622   0.138  13.229  0.1828 -0.2415  0.3454
14152PP      PP24256   1.714  10.036   3.607 -0.0743 -0.0062 -0.2368
14153PP      PP24257  15.260   4.309   2.705  0.2458  0.1828 -0.0343
14154PP      PP24258   5.656   0.257   0.780  0.2828  0.2372 -0.0938
14155PP      PP24259   6.012   8.837   1.352 -0.0160 -0.1649  0.0767
14156PP      PP24260  15.082   4.679   3.710 -0.1102 -0.0253  0.2143
14157PP      PP24261   5.460   7.084   1.584 -0.0753 -0.0317  0.1472
14158PP      PP24262   7.972  10.773   0.603  0.0664  0.1133 -0.1118
14159PP      PP24263  14.021  12.078  13.426 -0.0728 -0.0182 -0.0248
14160PP      PP24264  11.102   4.353   9.053 -0.0345  0.2194  0.0441
14161PP      PP24265   4.922   0.365   3.254 -0.0520  0.0602 -0.0110
14162PP      PP24266   3.085   8.282  12.986  0.0340 -0.2653 -0.1471
14163PP      PP24267   7.741   9.946   9.439 -0.1313  0.2748  0.1217
14164PP      PP24268  12.283   0.879   4.727 -0.0739 -0.1737 -0.0969
14165PP      PP24269  15.328   7.565   9.619 -0.1798 -0.2549  0.0023
14166PP      PP24270   4.361  14.248   9.544 -0.1219 -0.0850 -0.2473
14167PP      PP24271   8.091  11.018   3.347 -0.1237  0.4794 -0.1192
14168PP      PP24272   5.432   5.693   1.490 -0.1829  0.2344 -0.3852
14169PP      PP24273   6.676   1.963  11.202  0.0245 -0.5215 -0.2441
14170PP      PP24274  11.056  12.311   4.869 -0.1368  0.2518 -0.2480
14171PP      PP24275   3.710   2.262   9.015 -0.0258 -0.0126 -0.1307
14172PP      PP24276   5.635  11.031   9.877 -0.2445 -0.0610 -0.3124
14173PP      PP24277   0.971  15.043   1.281 -0.2899  0.2064 -0.2472
14174PP      PP24278  12.217   1.281  11.500  0.1560  0.2128 -0.0140
14175PP      PP24279  15.667  12.405   2.142 -0.1465  0.1955  0.1283
14176PP      PP24280   7.233   8.868   0.114  0.0521  0.1646  0.0275
14177PP      PP24281   6.552   7.999  10.652 -0.0549  0.0447  0.3220
14178PP      PP24282  10.354   1.881  11.483  0.1061 -0.1492 -0.4751
14179PP      PP24283   3.471   6.140   2.233  0.2224 -0.1176  0.2340
14180PP      PP24284   7.011   2.370   2.785  0.1270  0.1685  0.1430
14181PP      PP24285   1.156   9.159  10.785  0.0940  0.1121  0.1842
14182PP      PP24286   3.374  12.991   0.213 -0.0554 -0.0547 -0.2385
14183PP      PP24287   7.018   6.493   8.704  0.0483 -0.2024 -0.0389
14184PP      PP24288   7.354  14.054  12.999 -0.1178  0.2670 -0.1779
14185PP      PP24289   2.732   9.263   1.464 -0.2020 -0.0145  0.5933
14186PP      PP24290   9.846  13.577   1.709 -0.4590  0.1520 -0.2578
14187PP      PP24291  15.450  15.068   9.461 -0.1421  0.0156  0.0359
14188PP      PP24292   6.378  14.503   0.664  0.0912 -0.2950 -0.3138
14189PP      PP24293  11.678   9.866   1.476  0.1918  0.0419  0.0728
14190PP      PP24294   1.104  13.316  12.153  0.1796 -0.2285  0.0327
14191PP      PP24295  13.491   5.619   3.819 -0.1382 -0.0708 -0.3568
14192PP      PP24296   0.910  11.906   0.290  0.0775 -0.2194 -0.3897
14193PP      PP24297   8.751   8.395   8.706  0.4415  0.0221 -0.0795
14194PP      PP24298   5.288   3.150   3.657 -0.0462  0.0186  0.0181
14195PP      PP24299   6.301   2.975   9.760 -0.0102 -0.2265 -0.1346
14196PP      PP24300   4.592   4.850   0.638 -0.0029  0.0681 -0.1439
14197PP      PP24301   5.564  13.906   9.979 -0.1299 -0.0610  0.0090
14198PP      PP24302   9.366   1.993  12.701 -0.0235  0.2706  0.0870
14199PP      PP24303  13.694   3.284   3.848 -0.0407  0.1633  0.0148
14200PP      PP24304   3.754   6.002   8.458  0.0099 -0.1075  0.1928
14201PP      PP24305   2.181   0.841  12.310  0.0572 -0.2512  0.0012
14202PP      PP24306  15.085  11.090  10.566 -0.3171  0.0737 -0.1046
14203PP      PP24307  10.938   7.611   9.165 -0.2881  0.1809  0.1402
14204PP      PP24308   5.260   8.489  10.470 -0.0181  0.1808 -0.1177
14205PP      PP24309   5.528   2.940   1.406 -0.0977  0.0857 -0.1344
14206PP      PP24310  11.827   2.193   9.808 -0.1463  0.2625  0.1916
14207PP      PP24311  13.192   6.380   8.359 -0.0258  0.1993  0.0848
14208PP      PP24312  13.487   3.028   9.969  0.2265 -0.0864  0.0839
14209PP      PP24313   8.222  13.687   9.043  0.0417  0.1107 -0.0387
14210PP      PP24314   0.114   4.218   1.759  0.0578 -0.1265 -0.0121
14211PP      PP24315  11.717   0.398   2.681  0.1525 -0.0354  0.2001
14212PP      PP24316   1.774   7.541   8.588  0.0613 -0.0014  0.1438
14213PP      PP24317   7.935   4.865  11.397 -0.1353  0.1113  0.3238
14214PP      PP24318   5.278  10.036   3.451  0.2364  0.0207 -0.0403
14215PP      PP24319  12.010   3.386  11.404 -0.2740 -0.1852 -0.0195
14216PP      PP24320   3.391   9.762  12.852 -0.2462 -0.2331  0.0067
14217PP      PP24321   2.538   9.971   0.850  0.2503 -0.0112  0.0353
14218PP      PP24322   8.146   0.662  11.019  0.3345 -0.2107  0.0393
14219PP      PP24323  15.756  10.947   0.465 -0.0153 -0.1175 -0.0132
14220PP      PP24324   9.221   5.561   3.841  0.0072 -0.0742 -0.0461
14221PP      PP24325   6.198  12.671  10.373 -0.1402  0.2324  0.1432
14222PP      PP24326   4.032   8.266   2.381  0.3625 -0.3386 -0.0278
14223PP      PP24327  11.705   9.892   0.154 -0.0945 -0.2718  0.4460
14224PP      PP24328   6.094   0.842   3.342  0.0912  0.0658  0.3951
14225PP      PP24329   7.921   2.037   1.573 -0.0074  0.3590  0.2500
14226PP      PP24330   3.961  14.081  10.072  0.1048  0.0439 -0.1093
14227PP      PP24331  12.074   0.881   5.572 -0.0080  0.1934 -0.0323
14228PP      PP24332   0.651   4.952  10.631  0.2730  0.0428 -0.2160
14229PP      PP24333   8.861  13.155   3.188  0.2485  0.0156  0.1640
14230PP      PP24334   9.083   0.659  11.012  0.0484  0.1254  0.1333
14231PP      PP24335   3.289   3.928  11.744  0.3981  0.0309 -0.0888
14232PP      PP24336  11.164   2.549   0.518  0.1045 -0.0225 -0.3603
14233PP      PP24337   0.097  13.378   2.565  0.1232 -0.0192 -0.0911
14234PP      PP24338   8.819   9.063   0.634  0.0856 -0.0155 -0.1401
14235PP      PP24339   3.070  14.751  12.867 -0.3140  0.2069 -0.0371
14236PP      PP24340   6.560  10.592   8.367  0.1455 -0.0117  0.1108
14237PP      PP24341   4.661   4.156   9.139 -0.0203 -0.0663  0.2757
14238PP      PP24342   3.829   6.736  11.621  0.0912 -0.2900 -0.0325
14239PP      PP24343  13.224  11.944  10.099 -0.2761 -0.1240  0.1059
14240PP      PP24344   1.050   3.274  11.815 -0.1989  0.2081  0.0838
14241PP      PP24345   9.355   5.608  11.297  0.0362 -0.1974 -0.1307
14242PP      PP24346   4.028   9.042  12.454 -0.1850 -0.3880  0.0456
14243PP      PP24347   9.809  15.071   1.478  0.0539  0.0912 -0.2543
14244PP      PP24348   7.316   4.663   9.585 -0.3242 -0.0402  0.3320
14245PP      PP24349   1.654   7.763   2.456 -0.1403 -0.3146 -0.0093
14246PP      PP24350  12.012   6.671  10.408 -0.1955 -0.0305  0.0276
14247PP      PP24351  13.867   8.078   0.175  0.0673 -0.4955  0.3686
14248PP      PP24352  14.637   3.416  11.919 -0.0541  0.2241 -0.1928
14249PP      PP24353   0.557   0.098   2.338 -0.0240  0.3016 -0.2064
14250PP      PP24354   3.487  11.995  10.908 -0.1436  0.2311  0.1911
14251PP      PP24355  13.925   1.547  10.271 -0.0643 -0.0920  0.3668
14252PP      PP24356  13.550   2.767  12.079  0.0508  0.2060  0.3632
14253PP      PP24357   2.665  12.219   1.126 -0.2626 -0.0390 -0.1508
14254PP      PP24358   5.934   6.965  11.922  0.1042  0.0449 -0.1914
14255PP      PP24359   2.729  10.859  10.666  0.1532 -0.1619 -0.2075
14256PP      PP24360  15.521   3.145   0.768 -0.4233 -0.0320 -0.0670
14257PP      PP24361   3.775  10.214   4.238 -0.1270  0.0806  0.4126
14258PP      PP24362   6.692  10.151  10.705  0.2031 -0.1351 -0.1896
14259PP      PP24363   5.884   3.910   1.213 -0.2416  0.1973  0.0252
14260PP      PP24364  15.539   8.676   3.381  0.3708  0.3338  0.2018
14261PP      PP24365   4.796  10.711   9.988 -0.0669  0.2045 -0.3727
14262PP      PP24366  14.761   8.506   1.925  0.2850 -0.0811  0.1095
14263PP      PP24367   0.373  10.628   1.503  0.0229 -0.4011  0.2728
14264PP      PP24368   0.007   0.167   2.717  0.0473  0.3239  0.3603
14265PP      PP24369   8.356   5.395   4.257 -0.2606  0.3514 -0.1028
14266PP      PP24370  12.649  15.637   0.590  0.0636 -0.1000 -0.2504
14267PP      PP24371  10.079   2.002   0.126  0.0027  0.2575  0.1083
14268PP      PP24372   3.139   4.581   3.939  0.0262 -0.0084  0.2653
14269PP      PP24373   0.470   3.184   1.014  0.0906  0.0601  0.0656
14270PP      PP24374  10.794   3.847   2.424 -0.0278 -0.0420  0.0729
14271PP      PP24375   4.509   5.551   9.122 -0.0660  0.0273  0.0171
14272PP      PP24376   8.938   3.442  13.466 -0.1396  0.2355  0.4296
14273PP      PP24377  14.261   9.633   9.718 -0.0294  0.0821 -0.4965
14274PP      PP24378   4.674   8.343  11.971  0.1673 -0.0574 -0.0218
14275PP      PP24379   8.560   0.592   9.931  0.3163 -0.2111  0.2758
14276PP      PP24380   4.113   5.799  11.910  0.0391 -0.1260 -0.0663
14277PP      PP24381   5.643   6.285   0.850  0.2400 -0.0619 -0.0149
14278PP      PP24382   6.912  15.408   9.606 -0.1364 -0.0943  0.0138
14279PP      PP24383  13.066   1.231   4.021  0.1568 -0.0225  0.4190
14280PP      PP24384   7.128  11.892   0.471 -0.0439 -0.1046  0.0099
14281PP      PP24385   6.681  12.193   2.672 -0.2079  0.0304 -0.2209
14282PP      PP24386   5.096   0.706  10.685 -0.1302  0.0895 -0.0139
14283PP      PP24387   5.726  15.391   1.653 -0.1283  0.1169  0.1495
14284PP      PP24388   6.011  10.886  11.087 -0.0236 -0.2580 -0.0869
14285PP      PP24389   6.595  10.003   2.862 -0.0481 -0.2543  0.0855
14286PP      PP24390   7.555  15.824  11.156 -0.1333 -0.0959 -0.1508
14287PP      PP24391  15.697   2.659   3.737 -0.1392  0.0710  0.2322
14288PP      PP24392   6.526   4.997   3.792 -0.2213  0.2303 -0.2817
14289PP      PP24393   8.151   9.315  12.266  0.1583 -0.0481 -0.0241
14290PP      PP24394   8.006  11.123   4.858  0.3428  0.0288 -0.0009
14291PP      PP24395  11.063   4.417  11.656 -0.0150 -0.0458 -0.4600
14292PP      PP24396   9.990   2.123   1.655  0.0206  0.2190 -0.1253
14293PP      PP24397  13.938  15.277   2.724 -0.0210  0.0367  0.1056
14294PP      PP24398   9.888   5.568  10.506 -0.2861  0.2948  0.1628
14295PP      PP24399   7.403  10.120   0.665 -0.3048 -0.2131  0.0551
14296PP      PP24400   8.180  11.221  12.827 -0.0507  0.2306  0.1144
14297PP      PP24401   1.811   0.359   1.227  0.1141  0.0695 -0.1353
14298PP      PP24402   5.789   3.691  10.808  0.1765  0.2762 -0.0353
14299PP      PP24403   1.228   6.713  11.068 -0.2050  0.0766 -0.0603
14300PP      PP24404  14.096   1.666   9.095 -0.1275  0.0145  0.0851
14301PP      PP24405  12.179   7.693   3.546 -0.0735 -0.1172  0.2456
14302PP      PP24406   2.581  14.079   0.449 -0.0764  0.1227  0.4056
14303PP      PP24407   9.516   2.003  11.538 -0.0129 -0.1831 -0.0942
14304PP      PP24408  10.097  10.823   1.118  0.3027 -0.4219 -0.3857
14305PP      PP24409   7.759   0.808  13.516 -0.0225  0.2325 -0.0462
14306PP      PP24410  10.774   7.844   0.083  0.0079 -0.1015 -0.1463
14307PP      PP24411   8.184   8.212   9.278 -0.2287  0.0905  0.1209
14308PP      PP24412   0.769  15.009  12.001  0.1368 -0.0129  0.0584
14309PP      PP24413   0.335   5.738   3.637 -0.4493  0.0780 -0.0696
14310PP      PP24414   5.771  10.465   5.081  0.4420  0.0914 -0.3384
14311PP      PP24415   6.466  13.579   4.446  0.0087  0.0561  0.0580
14312PP      PP24416   7.591  12.019   3.625  0.0512 -0.0115 -0.1682
14313PP      PP24417  14.239   2.047   0.678 -0.0006  0.1582  0.0353
14314PP      PP24418  10.234  14.837  12.731 -0.1472 -0.1486 -0.2669
14315PP      PP24419  12.918   4.171   8.744  0.1163 -0.0148 -0.3312
14316PP      PP24420   5.596   4.194   2.218 -0.1169  0.4942  0.1679
14317PP      PP24421   9.998   3.064   2.480 -0.2585 -0.3586 -0.0823
14318PP      PP24422   8.234   3.373   2.194  0.0045 -0.1097 -0.1810
14319PP      PP24423  13.712   3.399   0.154 -0.2578  0.0263  0.3429
14320PP      PP24424   8.656   6.926  11.390  0.2341  0.1777 -0.0142
14321PP      PP24425  10.855  12.937   0.394  0.2722 -0.1200  0.2706
14322PP      PP24426   8.835  15.385  12.788 -0.0145  0.2123 -0.0843
14323PP      PP24427  12.342  11.404  13.225  0.1254  0.1337 -0.0318
14324PP      PP24428   7.130   4.248  12.456 -0.0518 -0.2037  0.0503
14325PP      PP24429  10.524   0.804   9.653 -0.4278  0.1697  0.0706
14326PP      PP24430   7.239   6.018   9.500  0.0255 -0.1717 -0.0615
14327PP      PP24431   4.570  10.739   0.016  0.0817 -0.0251 -0.0807
14328PP      PP24432   7.611  13.057   4.246 -0.3976 -0.0362  0.3484
14329PP      PP24433   4.462  13.595   4.454 -0.0154  0.1193 -0.1035
14330PP      PP24434   9.003   5.304   4.157  0.0467  0.1288 -0.0156
14331PP      PP24435   9.454   3.599   2.249 -0.0233 -0.2030  0.3042
14332PP      PP24436   8.815   3.245  11.006 -0.0332 -0.1168  0.1163
14333PP      PP24437   4.535   6.220  12.607 -0.0091  0.1592  0.4496
14334PP      PP24438   1.496   8.949   0.086  0.0254  0.0783 -0.0055
14335PP      PP24439  12.916  11.266   1.704 -0.0645 -0.4763  0.3913
14336PP      PP24440  14.313   5.483   1.849  0.0063  0.1929 -0.0083
14337PP      PP24441   9.910  11.038   3.820 -0.0725  0.3308  0.2857
14338PP      PP24442   9.017   3.546   2.430  0.1327 -0.0260  0.1811
14339PP      PP24443  12.717  12.930   4.298  0.1085  0.1722 -0.0046
14340PP      PP24444   1.237   2.025  11.376 -0.4323  0.1922 -0.1511
14341PP      PP24445   4.158   7.985   2.817 -0.1191  0.0532  0.1373
14342PP      PP24446   1.897   5.603   9.524 -0.1624  0.1858 -0.0273
14343PP      PP24447  15.562  12.406  11.790 -0.1902 -0.3243 -0.0852
14344PP      PP24448   5.369   6.735   4.065 -0.2053  0.2024 -0.0022
14345PP      PP24449  12.135   8.637  13.524  0.1002  0.0004  0.3487
14346PP      PP24450   8.453  11.526   4.784  0.0179  0.1164  0.0609
14347PP      PP24451  10.075  14.015  10.154  0.1210  0.1033  0.2574
14348PP      PP24452  14.056  11.452   1.038 -0.0165  0.0870 -0.0526
14349PP      PP24453   1.997   9.691   4.387  0.0299 -0.1965 -0.2317
14350PP      PP24454   1.415   3.748   9.482  0.0281 -0.3244 -0.3464
14351PP      PP24455   6.719   8.778   2.873  0.0717 -0.1755 -0.0397
14352PP      PP24456  12.471   1.856   4.251 -0.2198 -0.3508 -0.0197
14353PP      PP24457  14.445   2.069   3.741  0.0582 -0.1888  0.2012
14354PP      PP24458   3.452  11.197   0.648 -0.1819  0.2338 -0.0770
14355PP      PP24459   9.861   7.547   0.727  0.0324 -0.2344 -0.0868
14356PP      PP24460  15.844   3.653  11.278  0.0974 -0.0486 -0.0617
14357PP      PP24461  13.908   3.818   9.340 -0.0457 -0.1810 -0.1873
14358PP      PP24462   2.458   2.777  12.331  0.1119 -0.0036  0.0994
14359PP      PP24463  15.170   0.667   3.464 -0.3398  0.1677 -0.2641
14360PP      PP24464   7.414   2.683  10.061 -0.2682  0.0260  0.1731
14361PP      PP24465  12.085   1.005   9.928  0.0820 -0.1008  0.0205
14362PP      PP24466   7.260   0.999   4.042  0.0445 -0.0861 -0.0813
14363PP      PP24467   5.127  12.971  13.480  0.0932  0.0603 -0.3360
14364PP      PP24468   3.703  15.114   3.237 -0.2053  0.1009 -0.2425
14365PP      PP24469   9.748   1.674   1.062 -0.1318 -0.2498 -0.3865
14366PP      PP24470  13.242   5.721   2.118  0.1110 -0.0669 -0.2626
14367PP      PP24471  12.224  14.759   3.279  0.0236 -0.2041 -0.5096
14368PP      PP24472   9.678   8.799   2.215  0.0280  0.1818  0.2843
14369PP      PP24473   2.920   1.161   2.449  0.2722 -0.1585  0.0573
14370PP      PP24474  15.651   6.091  11.904  0.1255  0.4862  0.1363
14371PP      PP24475   7.290   5.454   0.840  0.2779 -0.2874  0.1606
14372PP      PP24476   1.631   1.938  10.289 -0.0962 -0.1824  0.2622
14373PP      PP24477  14.603  13.311  13.245  0.1550 -0.0825  0.3632
14374PP      PP24478  12.919  11.193  12.057  0.2957 -0.1388 -0.2811
14375PP      PP24479   3.349   6.568   1.935  0.0198 -0.0761  0.1025
14376PP      PP24480   3.117   5.638  10.019 -0.2010  0.2347 -0.1510
14377PP      PP24481  13.926  12.466   3.690  0.1036  0.0692  0.3656
14378PP      PP24482   2.485   1.725   3.672  0.0139  0.0574 -0.2294
14379PP      PP24483   6.594   2.496   2.164 -0.2741 -0.1095 -0.1775
14380PP      PP24484   1.791  13.457  11.469  0.1590 -0.2454 -0.0194
14381PP      PP24485   5.647   2.857  10.557  0.0820  0.0880  0.2000
14382PP      PP24486   9.213  13.744  10.811 -0.2296 -0.3410  0.1369
14383PP      PP24487   4.148   7.523  11.399  0.2558 -0.1000  0.3076
14384PP      PP24488   3.992  14.952   2.810 -0.1472 -0.1194 -0.2007
14385PP      PP24489   4.916   1.737  12.253 -0.0169 -0.1273  0.1996
14386PP      PP24490   6.702  12.453  12.334 -0.0579 -0.1673  0.2328
14387PP      PP24491  15.578   4.495   3.694 -0.0564  0.0547  0.1650
14388PP      PP24492  12.826   2.062   0.956 -0.3332 -0.1147 -0.3820
14389PP      PP24493   0.704   9.950   9.237 -0.0141 -0.0841 -0.0618
14390PP      PP24494   3.894   6.759   8.966 -0.1484 -0.1159 -0.0500
14391PP      PP24495   4.041   1.936   3.530 -0.1208  0.1907 -0.0263
14392PP      PP24496   5.006   9.335   1.141  0.0010  0.1971 -0.0167
14393PP      PP24497   2.781  10.283  10.677  0.0439 -0.0451  0.3144
14394PP      PP24498   3.826   3.485  12.941  0.1191 -0.0857 -0.1617
14395PP      PP24499   7.538   4.720   8.690  0.0226 -0.0030 -0.1439
14396PP      PP24500   8.451   7.671  11.149  0.4158  0.0762 -0.0605
14397PP      PP24501  13.642  15.470  13.009  0.0428  0.0342  0.1387
14398PP      PP24502   3.392   7.770   4.396 -0.1984 -0.0073 -0.0279
14399PP      PP24503   3.567  11.066  13.146  0.0306 -0.2626 -0.1497
14400PP      PP24504   5.876   6.446  11.976  0.3013  0.1367  0.1137
14401PP      PP24505   8.454   0.853  10.564  0.0100  0.1157 -0.4370
14402PP      PP24506   8.672   2.402   0.206 -0.4413 -0.2813 -0.0606
14403PP      PP24507   7.047  13.583  10.829 -0.0534  0.0399  0.1171
14404PP      PP24508  14.934   6.058  10.483 -0.3031  0.0768  0.1722
14405PP      PP24509   7.531   6.743  11.012  0.1219 -0.0248  0.0320
14406PP      PP24510   2.890   1.776  11.244 -0.0639  0.1007 -0.0758
14407PP      PP24511   1.548  10.886   2.185 -0.1236  0.3074 -0.2832
14408PP      PP24512   3.604   1.553   1.869 -0.1548 -0.2280 -0.1310
14409PP      PP24513   4.196   5.998   3.648  0.2027  0.2882  0.2768
14410PP      PP24514   0.789  15.160   0.322 -0.0173 -0.0658  0.1511
14411PP      PP24515   2.013   2.907  13.035 -0.3121 -0.1360 -0.4553
14412PP      PP24516   1.124   4.201   0.297 -0.1159  0.0089  0.2643
14413PP      PP24517  10.076   9.667  10.347 -0.1396  0.1778  0.0520
14414PP      PP24518   0.755   3.683  11.951  0.0705 -0.2276  0.2168
14415PP      PP24519   4.194   5.076  11.616 -0.2411 -0.1222  0.0038
14416PP      PP24520  13.017  14.191   1.703  0.0568  0.1767 -0.0425
14417PP      PP24521   1.281   0.695  11.174  0.1276  0.2213  0.1778
14418PP      PP24522   7.566  15.573   1.275  0.0155  0.1847 -0.2228
14419PP      PP24523   6.762   6.572   0.649 -0.0370 -0.2202  0.2003
14420PP      PP24524  10.075  12.439   1.068 -0.0936  0.1910 -0.1302
14421PP      PP24525   0.589   3.358   9.692 -0.1965  0.2467 -0.0518
14422PP      PP24526   8.772   4.573   9.482  0.0519  0.0437 -0.0369
14423PP      PP24527  10.884   2.850  12.803 -0.0851 -0.1457 -0.2626
14424PP      PP24528  15.857  15.041   9.715 -0.3897  0.0412 -0.1912
14425PP      PP24529   9.626  10.103   9.256 -0.0420 -0.5480 -0.2906
14426PP      PP24530   0.487   9.413   9.686 -0.1404  0.0536  0.0609
14427PP      PP24531  10.771  14.510  12.657  0.2106  0.1601  0.1659
14428PP      PP24532  15.559  13.436  12.150 -0.2648 -0.2320 -0.1876
14429PP      PP24533   8.533   1.533  12.401 -0.1698 -0.1140  0.1604
14430PP      PP24534   0.355   2.134  10.046 -0.0252 -0.0738  0.3298
14431PP      PP24535  13.169   7.110   1.530  0.3081  0.1746 -0.1914
14432PP      PP24536   6.792   9.081   0.993 -0.0390 -0.2118 -0.1705
14433PP      PP24537   2.164   6.615   9.066  0.3297 -0.2655 -0.1992
14434PP      PP24538  15.571  12.010   4.348 -0.1478 -0.2175  0.0824
14435PP      PP24539   6.329  15.177   3.697 -0.0399 -0.1880 -0.3047
14436PP      PP24540  14.318   3.739   0.698  0.0600 -0.0002 -0.0978
14437PP      PP24541   5.017  13.991   2.484 -0.0479  0.0772 -0.1017
14438PP      PP24542   2.124  11.019  11.059 -0.4955  0.1612 -0.0441
14439PP      PP24543   7.148   9.817   2.876  0.1121 -0.0702  0.1130
14440PP      PP24544  15.698   5.616   3.039  0.0672  0.0821 -0.0220
14441PP      PP24545   0.058  15.644  10.925 -0.0618 -0.1097 -0.2403
14442PP      PP24546   9.359   1.738   1.305  0.1672  0.0048  0.0190
14443PP      PP24547  15.120   8.608   4.850 -0.1913  0.0720 -0.4544
14444PP      PP24548   8.028   3.706   8.585 -0.1642  0.1257  0.3000
14445PP      PP24549   4.274   2.234   1.726 -0.2305 -0.0224 -0.1767
14446PP      PP24550   2.350  10.021   4.576 -0.1109 -0.1833 -0.2685
14447PP      PP24551  13.584  11.595  13.387 -0.0493 -0.1244  0.3838
14448PP      PP24552  11.872  14.986   1.444  0.0067  0.1829  0.2414
14449PP      PP24553   4.605  12.176   2.822 -0.2797 -0.1760 -0.0054
14450PP      PP24554   9.770  15.690   3.771  0.1612 -0.2573  0.0593
14451PP      PP24555  14.641   7.590  13.527 -0.1381  0.1171 -0.0185
14452PP      PP24556   4.667   7.395   0.935 -0.0300 -0.0731 -0.2129
14453PP      PP24557   6.907   7.749   9.504 -0.3767 -0.0513  0.0241
14454PP      PP24558   2.490   6.761  13.030  0.0132 -0.0049 -0.0304
14455PP      PP24559   0.007   9.873   4.152  0.0086  0.0304 -0.0225
14456PP      PP24560  10.207   6.574   3.688 -0.1325  0.2201 -0.0501
14457PP      PP24561  11.468   8.972  11.524 -0.1174 -0.2692  0.2754
14458PP      PP24562   1.539  10.116   4.090 -0.1168  0.0905 -0.0256
14459PP      PP24563   6.931   7.495   1.378  0.1937 -0.0194  0.2891
14460PP      PP24564   7.722  14.552   2.624  0.2346 -0.1132 -0.1191
14461PP      PP24565   8.309  13.346   2.223 -0.0788  0.1558 -0.4042
14462PP      PP24566  11.539   4.744   2.425 -0.0747  0.4090  0.0381
14463PP      PP24567   6.797  13.081   2.609  0.0992 -0.0559 -0.0288
14464PP      PP24568   2.632  12.973  11.137  0.0647  0.0487  0.1146
14465PP      PP24569   1.557   1.962   1.673  0.1109  0.1783  0.2025
14466PP      PP24570   1.529   0.844  11.581  0.3861  0.0695 -0.0112
14467PP      PP24571   6.702   3.286  11.718  0.2885  0.2380 -0.1093
14468PP      PP24572   3.457  15.333  10.295 -0.0266  0.2931 -0.4197
14469PP      PP24573  13.113  10.307   9.997  0.0897  0.0117  0.2595
14470PP      PP24574  11.930   7.704   1.129  0.2512 -0.0761  0.1891
14471PP      PP24575   6.292   1.881   4.186  0.4409  0.3003  0.4566
14472PP      PP24576   0.482   8.252  12.182  0.2258 -0.4683 -0.1292
14473PP      PP24577  11.530  13.843  10.637  0.0706  0.1097 -0.0708
14474PP      PP24578  10.611  12.916  10.294 -0.0962 -0.0485 -0.1542
14475PP      PP24579   2.244  12.724   0.076 -0.2212  0.2187  0.2827
14476PP      PP24580   9.833  10.156  11.564 -0.2379  0.3237  0.0519
14477PP      PP24581  13.333   7.271   0.579 -0.1722 -0.2825  0.1324
14478PP      PP24582   9.281  12.141  10.767  0.1616 -0.3079 -0.0942
14479PP      PP24583  13.534   8.846   0.931 -0.1297  0.0425  0.4852
14480PP      PP24584   1.665  13.757   9.293 -0.0284 -0.2070 -0.2053
14481PP      PP24585   9.229   9.115   3.281  0.0934  0.0045 -0.2275
14482PP      PP24586  10.876   8.964   0.842  0.0230 -0.1060 -0.2517
14483PP      PP24587   2.829   6.345  13.407 -0.1852  0.3697 -0.4324
14484PP      PP24588   2.654   6.940  12.130  0.3372 -0.0008 -0.0689
14485PP      PP24589  13.415  13.346   0.658 -0.1413 -0.0029  0.1920
14486PP      PP24590   3.839   3.542   4.844 -0.1333  0.1042  0.0690
14487PP      PP24591   3.983   8.933   3.993 -0.4240 -0.2195  0.2450
14488PP      PP24592  13.499   6.630   9.333 -0.1423  0.3123  0.0147
14489PP      PP24593   8.366   8.738   8.490  0.2314  0.1491 -0.0767
14490PP      PP24594   4.330  13.804   9.892 -0.2574  0.4120  0.1764
14491PP      PP24595   4.638  11.619  12.543 -0.0772 -0.3681 -0.0934
14492PP      PP24596  15.180   3.322  12.764 -0.1347 -0.1861  0.1648
14493PP      PP24597  12.923   5.540   2.750  0.1098 -0.0096  0.0656
14494PP      PP24598  13.116  11.638  12.094 -0.0008 -0.2542 -0.1545
14495PP      PP24599  10.212   9.988   4.132 -0.1373 -0.1749 -0.0738
14496PP      PP24600   7.262   2.415   2.263  0.0633 -0.1013 -0.1079
14497PP      PP24601  14.047   0.067   9.242 -0.0147  0.3184 -0.2202
14498PP      PP24602   9.316   4.899  12.299 -0.3480  0.3639  0.0098
14499PP      PP24603   5.533   9.657   3.629 -0.0063 -0.0458  0.2280
14500PP      PP24604   5.802   2.158   2.020  0.0617 -0.2533 -0.2237
14501PP      PP24605  11.462   1.296  12.812 -0.1090  0.1371  0.1080
14502PP      PP24606   4.533  13.874  10.755  0.0704  0.1044  0.0730
14503PP      PP24607   3.707  12.674  12.069 -0.2164 -0.0148  0.1207
14504PP      PP24608  13.226   7.581   9.389 -0.2508  0.0977 -0.0131
14505PP      PP24609   6.225   4.186   2.261  0.2115  0.0212  0.3644
14506PP      PP24610  10.306  14.953   1.509 -0.0972 -0.1881  0.0057
14507PP      PP24611   3.380  11.069   9.645  0.1782  0.1266 -0.0134
14508PP      PP24612  13.338   7.332   3.050 -0.1961 -0.1056 -0.0603
14509PP      PP24613   9.193  12.827   3.150 -0.1163  0.4097 -0.0302
14510PP      PP24614   7.191  10.494   0.182 -0.1011 -0.1805  0.2245
14511PP      PP24615   3.342   0.532   4.195  0.0884 -0.0336  0.0138
14512PP      PP24616  10.444  11.899   2.544 -0.0982 -0.2228  0.2017
14513PP      PP24617   8.577   9.793   2.460 -0.1167 -0.0296  0.3180
14514PP      PP24618  10.685   4.542   9.272 -0.0735  0.0184  0.0416
14515PP      PP24619   4.978  11.694   3.485  0.2650 -0.1020 -0.0769
14516PP      PP24620  15.033  12.836   1.754 -0.0305  0.1047  0.2343
14517PP      PP24621   9.647   3.387   0.544 -0.2604 -0.2461 -0.1021
14518PP      PP24622   6.205  14.508   2.285  0.1545  0.1575  0.0109
14519PP      PP24623   0.952  15.695   1.016 -0.1254 -0.1039  0.1181
14520PP      PP24624   8.469  10.767   9.883  0.0860  0.0234  0.2932
14521PP      PP24625   1.576   7.772   3.867  0.1681 -0.2190  0.0519
14522PP      PP24626  11.678   4.755   3.544  0.0658 -0.1888  0.1185
14523PP      PP24627   1.707  10.120   1.700 -0.1229  0.1085 -0.1134
14524PP      PP24628  11.124   0.019   3.934  0.1332  0.1870 -0.2530
14525PP      PP24629  13.506  12.074  13.305  0.0418 -0.0595 -0.1597
14526PP      PP24630   6.683  11.867  10.593  0.3056 -0.1098 -0.0409
14527PP      PP24631   3.867  10.814   3.089  0.0748 -0.0487 -0.1271
14528PP      PP24632   5.337   4.444  11.628 -0.0132  0.1339 -0.0541
14529PP      PP24633  12.534   1.665  13.530  0.1387 -0.0036 -0.2194
14530PP      PP24634  13.369  11.132   1.362  0.0675  0.0166 -0.1563
14531PP      PP24635   5.417   8.734  12.699 -0.1088  0.0784 -0.0431
14532PP      PP24636   6.087  13.793   2.459 -0.1055 -0.1645  0.0997
14533PP      PP24637   7.950   6.758   0.251  0.1207  0.0238 -0.1901
14534PP      PP24638  15.724  10.077   2.641 -0.3257 -0.2014 -0.1407
14535PP      PP24639   3.416   9.452   9.711 -0.1870  0.0514  0.0689
14536PP      PP24640   5.381   3.776  12.129 -0.0962  0.1049 -0.5861
14537PP      PP24641   1.868  10.709   2.577 -0.1760 -0.2376 -0.1161
14538PP      PP24642  11.534  13.744   3.624  0.1693 -0.0629 -0.4764
14539PP      PP24643   4.891  13.929  11.343 -0.3751  0.0369  0.1594
14540PP      PP24644   7.184  11.039   8.905 -0.0234  0.2929 -0.1846
14541PP      PP24645  15.746   5.208   7.773  0.0583  0.1370 -0.0488
14542PP      PP24646  13.262   7.850   8.039 -0.0801  0.1630 -0.0155
14543PP      PP24647   1.405   8.018   0.146 -0.1221 -0.5301 -0.0418
14544PP      PP24648  12.054   3.038  12.684 -0.1448 -0.1242  0.0645
14545PP      PP24649  13.440  13.351  12.059  0.1199 -0.1789 -0.3328
14546PP      PP24650   7.648  10.490  10.562  0.2335  0.1405  0.0635
14547PP      PP24651  15.559   7.669  11.042 -0.1720 -0.1770  0.0829
14548PP      PP24652   9.447   1.339  13.275 -0.1096 -0.2016  0.1269
14549PP      PP24653   8.629  11.033  12.640 -0.1669 -0.2113  0.3143
14550PP      PP24654  12.038   7.660  10.110 -0.1331 -0.1003 -0.0394
14551PP      PP24655   1.105   1.350   3.941  0.0148  0.2184  0.3110
14552PP      PP24656  10.936   6.511   3.235 -0.3793  0.0593  0.0897
14553PP      PP24657   6.562   7.428   4.114  0.1672  0.1148  0.0528
14554PP      PP24658   3.898   1.829  11.594  0.2923 -0.0831 -0.1619
14555PP      PP24659  11.335  12.250  13.266  0.0524  0.0804 -0.0179
14556PP      PP24660   3.023  13.415   1.016 -0.3975  0.3474 -0.3310
14557PP      PP24661  15.832   1.330   4.224 -0.1497 -0.1744  0.2464
14558PP      PP24662   2.397  13.424   3.343 -0.1942 -0.0652 -0.0566
14559PP      PP24663   8.619  10.285  12.169 -0.2085  0.1020 -0.0270
14560PP      PP24664  15.811   2.219   3.935  0.1603 -0.2378 -0.1105
14561PP      PP24665   7.632   1.096  12.023  0.1508  0.1096  0.0853
14562PP      PP24666  15.334  14.810  13.295  0.1352  0.0917  0.3715
14563PP      PP24667   1.813   6.815  11.106 -0.0675 -0.2536 -0.3320
14564PP      PP24668  15.854  11.085   3.613 -0.2780  0.1512 -0.0635
14565PP      PP24669  13.748  11.865   3.246  0.1678 -0.1523 -0.0903
14566PP      PP24670   1.707   8.949   1.170  0.2180 -0.2055 -0.1243
14567PP      PP24671   5.027   2.511  11.405  0.1466 -0.0490 -0.0425
14568PP      PP24672   3.360   1.982   2.144 -0.1650 -0.1664 -0.1061
14569PP      PP24673   6.000  12.664   2.132  0.2465  0.1534  0.3586
14570PP      PP24674   4.131  10.287   2.906 -0.0049 -0.0590  0.3912
14571PP      PP24675  14.456   4.104  13.447  0.2400 -0.2534 -0.2470
14572PP      PP24676   5.440  11.527   9.872  0.1235  0.1250  0.2173
14573PP      PP24677   2.364  15.602  11.210  0.0092 -0.0174  0.1689
14574PP      PP24678   8.650  12.939   1.524 -0.2502  0.1199 -0.0504
14575PP      PP24679   9.875  10.464  12.229  0.0851  0.0474 -0.4352
14576PP      PP24680   7.582   8.270   1.228 -0.0168  0.1396  0.0532
14577PP      PP24681  13.493  11.755  12.345 -0.1977  0.0104 -0.0357
14578PP      PP24682   7.471   3.141  13.182 -0.1924  0.1358  0.1188
14579PP      PP24683   0.507   1.690  11.812  0.0542 -0.0790 -0.0605
14580PP      PP24684   2.411   0.053  13.028  0.2539 -0.2988 -0.1979
14581PP      PP24685   2.713   4.386   1.900  0.0061 -0.1627  0.0992
14582PP      PP24686   2.890  12.909  11.644  0.0114 -0.0921  0.2932
14583PP      PP24687   0.890   2.634   2.855 -0.2372 -0.1611  0.0430
14584PP      PP24688  12.153   7.785  13.166  0.1512 -0.0293  0.1501
14585PP      PP24689  13.757   3.730   0.603 -0.1992 -0.0831  0.3411
14586PP      PP24690  13.607   3.923  10.569  0.1338  0.0055  0.3157
14587PP      PP24691  10.491   9.494  13.123  0.1011 -0.1933  0.0029
14588PP      PP24692   1.116  10.109   1.374 -0.0068  0.0697 -0.0067
14589PP      PP24693  14.535   0.793   1.459 -0.1409  0.4309  0.5878
14590PP      PP24694  15.113   2.718   2.615  0.1081 -0.2535 -0.2613
14591PP      PP24695   1.972   0.828  11.386  0.2130  0.3756 -0.3805
14592PP      PP24696   4.549   5.960   1.036  0.1188 -0.1278 -0.1321
14593PP      PP24697   6.341   3.194   0.619 -0.1660 -0.1568 -0.0240
14594PP      PP24698  13.055   7.033   2.520 -0.0635  0.4467 -0.1348
14595PP      PP24699   5.924   6.302  13.243 -0.1917 -0.1120  0.0877
14596PP      PP24700   4.128  11.153   1.466  0.0860 -0.0094 -0.1894
14597PP      PP24701  15.172  14.987   4.059 -0.2383 -0.3465  0.1031
14598PP      PP24702   3.160   9.065  10.846  0.1114  0.0235  0.3437
14599PP      PP24703   0.757  11.270   3.195  0.1217  0.0559  0.0037
14600PP      PP24704   6.444   8.300   0.028  0.1847  0.2668  0.0490
14601PP      PP24705   5.883   1.240  12.424  0.1941  0.1236 -0.1793
14602PP      PP24706   1.703   8.195  11.017  0.0831  0.0850  0.0615
14603PP      PP24707   3.223   6.501  10.456 -0.1061  0.0757 -0.1106
14604PP      PP24708   5.526  15.663  11.891 -0.0085  0.1912 -0.1977
14605PP      PP24709  14.242  10.275   3.384  0.1851  0.0165 -0.1665
14606PP      PP24710   0.718  15.397   8.658 -0.3032 -0.0476 -0.0689
14607PP      PP24711  12.246   9.520   9.971 -0.0045 -0.0011 -0.1821
14608PP      PP24712  13.604   3.976   8.920  0.1700  0.0535  0.1111
14609PP      PP24713   8.295  11.966   2.551  0.3656  0.0084 -0.1566
14610PP      PP24714   7.779  12.631  10.279  0.2151 -0.1166 -0.1200
14611PP      PP24715   2.186  10.172   0.137 -0.3511 -0.2031  0.3085
14612PP      PP24716   8.238   0.236  10.782 -0.3336  0.1969  0.1819
14613PP      PP24717   6.823   2.768   9.151  0.0774 -0.0131  0.0697
14614PP      PP24718  12.114  14.152  11.511  0.0163 -0.0282 -0.0622
14615PP      PP24719  15.841   7.859  11.892 -0.4246 -0.1208 -0.1225
14616PP      PP24720   1.004  10.418   0.970 -0.2191 -0.0348  0.1777
14617PP      PP24721  10.904   4.500   0.134 -0.1743 -0.0226 -0.1990
14618PP      PP24722   8.650   5.313   8.143 -0.2621  0.0451  0.0248
14619PP      PP24723   2.223   2.060   0.835  0.1425 -0.0077  0.0802
14620PP      PP24724  11.154   3.202  13.384 -0.0246  0.0489  0.0790
14621PP      PP24725   2.559  15.700   0.681 -0.1394 -0.1392 -0.0312
14622PP      PP24726  13.550   5.346  11.115 -0.0028  0.0854  0.1521
14623PP      PP24727  10.817   1.344  10.353 -0.0835 -0.3122  0.2027
14624PP      PP24728   0.828  12.376   3.152 -0.1542  0.0091  0.1835
14625PP      PP24729   6.493  12.144   8.966  0.1243 -0.3374 -0.2575
14626PP      PP24730  11.952   0.223   3.610 -0.0965 -0.1556  0.2575
14627PP      PP24731  14.000   8.001   2.438 -0.0799  0.1397 -0.0236
14628PP      PP24732   3.339   4.603   3.251 -0.1602 -0.1349 -0.1725
14629PP      PP24733  11.570   4.444  12.548 -0.2303 -0.0876 -0.3330
14630PP      PP24734  10.607  14.041   3.619  0.1515 -0.0580 -0.0335
14631PP      PP24735  12.652  12.480  12.120 -0.3641 -0.3561 -0.0566
14632PP      PP24736   1.948   2.444   0.406  0.1469  0.1468  0.0911
14633PP      PP24737   5.791   0.594   2.982 -0.0637  0.2363  0.0297
14634PP      PP24738  12.704  10.477  11.309  0.0791  0.0991  0.1343
14635PP      PP24739   3.567   2.617  13.458  0.1613 -0.1085  0.0307
14636PP      PP24740   0.449   3.530   5.033  0.4698  0.1433 -0.2268
14637PP      PP24741   5.181   7.305   2.317 -0.1129 -0.2211 -0.0970
14638PP      PP24742  14.209   5.057  13.060  0.0758 -0.2404 -0.3283
14639PP      PP24743   9.007   0.519   3.249 -0.1924 -0.0824 -0.0650
14640PP      PP24744  10.057   5.218  12.488  0.1292  0.2037  0.1065
14641PP      PP24745  11.975   5.110   2.158  0.0366 -0.2736  0.1981
14642PP      PP24746  13.808   4.799  11.717 -0.2733 -0.1828  0.0255
14643PP      PP24747   6.184   9.128   9.273  0.0989  0.0325  0.3335
14644PP      PP24748   1.178   5.374  13.517  0.4212  0.1161  0.1218
14645PP      PP24749   8.108  14.282   3.912 -0.0098 -0.1737 -0.1084
14646PP      PP24750   2.654   7.559  10.957 -0.3074  0.1907 -0.0564
14647PP      PP24751   2.272  14.003   2.305  0.1761 -0.1676  0.2200
14648PP      PP24752  11.922   9.061   2.314 -0.1367 -0.0226  0.1879
14649PP      PP24753   7.244   7.436  11.295  0.1883 -0.0790 -0.0983
14650PP      PP24754   7.163   7.976  11.212  0.0679 -0.2205  0.1433
14651PP      PP24755   7.008   5.660   4.182  0.2058 -0.1014 -0.0827
14652PP      PP24756   4.439   5.090   3.867  0.1516  0.0444 -0.0581
14653PP      PP24757   1.090   5.719   1.041  0.0601  0.0367  0.2753
14654PP      PP24758   3.625   3.650  13.444 -0.1836 -0.1050 -0.1588
14655PP      PP24759  14.955   5.011  10.737  0.1098  0.3461  0.0118
14656PP      PP24760   9.676  15.156   3.936 -0.3442 -0.0280  0.4247
14657PP      PP24761   0.214   0.257  12.148 -0.1871 -0.3277  0.1549
14658PP      PP24762  12.870   8.585  12.316 -0.0547 -0.1444 -0.1461
14659PP      PP24763  14.088   3.359   2.595  0.0578 -0.2433 -0.1983
14660PP      PP24764   3.631   6.565   0.780  0.3226  0.0293 -0.1199
14661PP      PP24765  11.769  14.923   3.446 -0.1738 -0.0136  0.2930
14662PP      PP24766  13.577   9.397   0.980 -0.0493  0.1784  0.0166
14663PP      PP24767  11.987   6.998   3.553 -0.3553 -0.3404 -0.1193
14664PP      PP24768   1.000   7.660  11.489 -0.0428  0.1317  0.0555
14665PP      PP24769   8.124   2.175   4.233  0.0933 -0.0041  0.0091
14666PP      PP24770  10.165  15.705   3.434  0.0186 -0.3176 -0.3001
14667PP      PP24771   0.183  15.386   9.987 -0.0578  0.0210  0.0077
14668PP      PP24772   6.177   8.220   3.555 -0.4215  0.0766 -0.0824
14669PP      PP24773   6.220   3.343   3.602  0.2830 -0.0462 -0.3873
14670PP      PP24774   4.614   8.066   9.753  0.0172  0.0572 -0.0403
14671PP      PP24775  11.008   5.422   0.157  0.2818  0.2989  0.0948
14672PP      PP24776   4.209   1.109   3.200  0.0119  0.0265 -0.1895
14673PP      PP24777   9.195   7.815   1.260  0.1444 -0.0279 -0.2154
14674PP      PP24778   9.319   5.002   2.456 -0.0446 -0.2415  0.1846
14675PP      PP24779   0.945   3.639   0.545 -0.1286  0.1671 -0.0817
14676PP      PP24780  14.024  10.859   2.255  0.0241 -0.2100 -0.1304
14677PP      PP24781   1.666  15.289   0.023 -0.2814  0.2409  0.3283
14678PP      PP24782   4.851   5.260   2.596  0.0206  0.1078  0.2397
14679PP      PP24783  12.698  15.364   0.067  0.0505 -0.0284 -0.2147
14680PP      PP24784   4.884  12.725  11.561 -0.0312  0.2702 -0.2980
14681PP      PP24785   0.808   8.879   4.406 -0.0440  0.3500 -0.0499
14682PP      PP24786   3.592   6.155   4.768 -0.1165 -0.2383  0.2132
14683PP      PP24787   8.131  14.329  12.368 -0.0512  0.0702 -0.0835
14684PP      PP24788   0.548   8.348   9.480  0.1434 -0.0819 -0.0476
14685PP      PP24789   1.165   9.419  12.514 -0.1049 -0.3921  0.1341
14686PP      PP24790  10.166  14.215   0.899  0.1107 -0.0851  0.1661
14687PP      PP24791   3.221   3.765   0.631 -0.1623 -0.0487 -0.0556
14688PP      PP24792   3.507  14.291   1.662  0.0658  0.2448 -0.0020
14689PP      PP24793  14.297   8.778   8.575 -0.2437  0.0656 -0.1184
14690PP      PP24794   8.996   6.421   2.700  0.0232  0.2502  0.1607
14691PP      PP24795  10.515  13.859   1.789  0.0222  0.2016 -0.1823
14692PP      PP24796  11.758   3.677   2.745  0.0169 -0.1272 -0.0219
14693PP      PP24797  15.453  14.087   4.140  0.1264  0.1554  0.0381
14694PP      PP24798   8.640   8.479  10.790 -0.1078  0.3395 -0.3124
14695PP      PP24799  12.557   9.930   9.957 -0.1523 -0.4226 -0.2400
14696PP      PP24800   2.679  15.642  10.221 -0.0223 -0.1224  0.1833
14697PP      PP24801   7.615  15.883  11.807 -0.1164 -0.1999  0.0055
14698PP      PP24802   1.678   7.308   9.511 -0.1579  0.4688 -0.1799
14699PP      PP24803   0.512   5.306   0.632 -0.0279  0.1081 -0.2473
14700PP      PP24804  10.645   7.773   9.680 -0.2173 -0.1138  0.2733
14701PP      PP24805   6.840   4.382   9.752 -0.0389 -0.0733 -0.0487
14702PP      PP24806   7.457  13.743   1.115 -0.1000  0.0294 -0.1078
14703PP      PP24807   6.760   9.120  12.533  0.0602 -0.0965 -0.4182
14704PP      PP24808  12.765   2.774   2.445  0.0971 -0.1294  0.1356
14705PP      PP24809  11.924   4.403   8.407  0.2095  0.0090  0.0263
14706PP      PP24810   8.804   3.783   1.645  0.6110  0.0518  0.0779
14707PP      PP24811  14.756   9.577   9.729  0.2905 -0.0186 -0.0306
14708PP      PP24812   9.449   0.040  11.605 -0.0202 -0.0308  0.1428
14709PP      PP24813  12.153   5.094  10.898  0.2914 -0.1387 -0.1823
14710PP      PP24814  14.668   7.849  13.031  0.0636  0.0909  0.1254
14711PP      PP24815   2.485   9.821   3.947 -0.0793 -0.1176  0.0122
14712PP      PP24816  10.203   3.425   0.326  0.1458 -0.2766 -0.2251
14713PP      PP24817  11.224   4.154  11.226 -0.0077 -0.0655 -0.0288
14714PP      PP24818  15.448   3.992   4.053  0.0315 -0.1328 -0.2057
14715PP      PP24819   1.298  13.638  11.767 -0.1638  0.2592  0.0289
14716PP      PP24820   0.798   4.407   9.356 -0.0696 -0.2148 -0.0396
14717PP      PP24821  10.794   0.523   0.952 -0.2018 -0.1665 -0.2325
14718PP      PP24822   1.498   9.465   9.078 -0.1207 -0.3194 -0.1974
14719PP      PP24823   4.426  14.577   0.918  0.0798  0.2680  0.1140
14720PP      PP24824  13.812  10.935   9.860  0.1077 -0.1140 -0.0799
14721PP      PP24825   8.188   6.078  10.387  0.0377  0.0493 -0.3415
14722PP      PP24826  11.686  13.936  12.939  0.0190 -0.2180  0.3871
14723PP      PP24827  14.765   0.876   3.101  0.0252  0.0003 -0.1557
14724PP      PP24828   5.793  15.496   0.191  0.1853  0.0126  0.0029
14725PP      PP24829  10.462  13.127   3.728 -0.0615 -0.0719 -0.3635
14726PP      PP24830   6.951   1.951   3.106 -0.2536 -0.0643 -0.0062
14727PP      PP24831  13.955   9.636  11.201 -0.3026 -0.0765  0.2483
14728PP      PP24832  15.449   9.286  13.296  0.4201  0.1896  0.2495
14729PP      PP24833   2.683   5.477   0.159 -0.2005 -0.0047 -0.0433
14730PP      PP24834  13.651   6.960   9.628  0.0261 -0.1144 -0.2261
14731PP      PP24835   9.572   6.368  10.710 -0.1091 -0.0773 -0.0072
14732PP      PP24836   6.504  11.963   2.261 -0.0687 -0.0843  0.1552
14733PP      PP24837  13.563   5.622   0.273  0.2619  0.2341 -0.2392
14734PP      PP24838   5.373   6.684  11.744  0.2939 -0.1808  0.2293
14735PP      PP24839  14.780   0.586   3.813  0.5265 -0.1053 -0.0973
14736PP      PP24840   9.687   7.861  11.670  0.0053 -0.0405 -0.0390
14737PP      PP24841  10.266   8.855  13.121  0.2603 -0.0011 -0.0691
14738PP      PP24842   3.973  10.268  10.630 -0.0097 -0.2005  0.0352
14739PP      PP24843   6.182   2.869   1.518  0.2679 -0.2058  0.1853
14740PP      PP24844   6.167  15.063   3.257  0.1383  0.1479  0.0465
14741PP      PP24845   9.934   0.269  12.677  0.1821  0.0612 -0.0712
14742PP      PP24846   0.534  11.713   1.115 -0.0741 -0.0163  0.1030
14743PP      PP24847  11.910   3.764  10.083 -0.0309 -0.1571  0.1630
14744PP      PP24848  11.703   4.608   3.001 -0.3462 -0.1415  0.1238
14745PP      PP24849   3.010   5.865  13.540 -0.2030  0.1928  0.0662
14746PP      PP24850   1.257  12.971   2.517  0.0585 -0.0661 -0.1260
14747PP      PP24851   5.842   5.775  11.825  0.0076  0.0198  0.0217
14748PP      PP24852  11.090  13.956   3.312 -0.2394  0.1676  0.0578
14749PP      PP24853   0.780  14.661   9.131 -0.1895  0.2370  0.2033
14750PP      PP24854   4.048  12.678  10.263  0.0545 -0.0520 -0.0256
14751PP      PP24855   5.729   0.563  10.862  0.1377  0.0998 -0.3074
14752PP      PP24856   8.355   5.922   1.037  0.0142  0.0439 -0.0576
14753PP      PP24857   1.338   7.895  13.176 -0.0748 -0.2002 -0.3606
14754PP      PP24858  13.456   4.390   0.267 -0.0890  0.0157  0.0649
14755PP      PP24859  10.779   3.840  11.212  0.3996  0.0049  0.0619
14756PP      PP24860   8.773   6.242   8.971 -0.1813 -0.0100  0.2266
14757PP      PP24861  14.471   4.003   1.343  0.4322 -0.0480 -0.3771
14758PP      PP24862  13.470   6.854   8.326  0.0617 -0.2165 -0.3333
14759PP      PP24863  11.930  12.902   3.389 -0.1447 -0.3671  0.2355
14760PP      PP24864   0.034   0.110  11.655  0.3014  0.0759  0.0128
14761PP      PP24865  14.239   8.499   9.439  0.4880  0.1881 -0.4107
14762PP      PP24866  11.901   1.428   2.556  0.3861  0.3245 -0.2390
14763PP      PP24867   0.599   9.100  10.516  0.2227  0.1114 -0.0039
14764PP      PP24868   4.399  12.337  10.485  0.1220  0.2129  0.2593
14765PP      PP24869   6.347   2.447   4.040  0.0630  0.3311 -0.1351
14766PP      PP24870  15.166   0.948   2.713 -0.0063 -0.2376  0.1907
14767PP      PP24871  15.638  13.673   9.620  0.1180  0.5502 -0.0517
14768PP      PP24872   4.047   9.572   2.253  0.0879 -0.0347 -0.1331
14769PP      PP24873   3.046  13.509   2.590 -0.1634 -0.1304 -0.4079
14770PP      PP24874  14.411  15.847  11.202  0.2126 -0.2726  0.1537
14771PP      PP24875   7.429  10.206   4.224 -0.0581 -0.2166  0.1276
14772PP      PP24876   3.381  15.326   0.216 -0.1435 -0.2080  0.1682
14773PP      PP24877  14.253   6.446  11.264  0.0640  0.0521  0.3761
14774PP      PP24878   2.781   8.526   2.457 -0.2486 -0.2695 -0.0842
14775PP      PP24879   0.923   9.544   3.099  0.2779  0.0794  0.1435
14776PP      PP24880  12.925  12.834   2.140 -0.1687 -0.1214  0.2197
14777PP      PP24881  10.944  15.638   3.514  0.1810  0.1794 -0.0920
14778PP      PP24882   2.220  13.347  10.356 -0.1687 -0.3522  0.1298
14779PP      PP24883  14.768   0.763  10.364 -0.0859 -0.1836  0.1396
14780PP      PP24884   4.140  15.161   3.990  0.0735  0.1563  0.0461
14781PP      PP24885   4.605   3.810  11.277  0.0845  0.2841  0.1003
14782PP      PP24886   8.607  10.148   2.924  0.4672 -0.0673  0.0295
14783PP      PP24887   4.833   7.658   3.303  0.0288  0.0523  0.3128
14784PP      PP24888   0.157   6.132  12.680  0.0949 -0.2276 -0.0166
14785PP      PP24889   4.998   2.177  13.468  0.1388 -0.0416  0.2378
14786PP      PP24890   9.863  15.766  11.344 -0.1278  0.0321 -0.0590
14787PP      PP24891  14.817   9.483   0.948  0.2579  0.0955  0.1409
14788PP      PP24892  14.906   9.806  12.194  0.0011  0.2137  0.0949
14789PP      PP24893   7.102   3.232   8.847 -0.0669 -0.0114 -0.0553
14790PP      PP24894  12.538   0.536   2.350 -0.2519 -0.0829 -0.0380
14791PP      PP24895  14.570  10.756  12.480  0.0169  0.3380  0.3018
14792PP      PP24896  12.944   2.404  11.366 -0.1811  0.0069 -0.0621
14793PP      PP24897   6.556   6.560   3.615  0.0482  0.2228 -0.0859
14794PP      PP24898  13.302  10.340  10.443  0.0155 -0.1102  0.3192
14795PP      PP24899   5.163   8.101   3.957  0.4766  0.0314 -0.0472
14796PP      PP24900   9.948   0.480  10.030  0.3254 -0.1187 -0.1204
14797PP      PP24901   4.904  15.525   2.080 -0.0680  0.2731  0.1397
14798PP      PP24902  14.978   9.922  10.146  0.1031 -0.5438  0.0109
14799PP      PP24903   7.953   2.532   2.199  0.0135 -0.0085 -0.0653
14800PP      PP24904   0.915   0.901  13.354  0.0007 -0.3570 -0.0269
14801PP      PP24905  11.396   9.290   2.355 -0.1374  0.0054  0.2715
14802PP      PP24906   9.253   6.674   3.637 -0.1877  0.1791  0.1073
14803PP      PP24907   1.795   1.531   0.036  0.1212  0.3112 -0.3042
14804PP      PP24908   2.610  11.085   2.551  0.1964  0.0723  0.0210
14805PP      PP24909   1.661  12.037   2.286  0.1634  0.2897 -0.0034
14806PP      PP24910   1.081  14.974   9.381 -0.1428 -0.3909 -0.0849
14807PP      PP24911   4.573   9.587  13.175 -0.1825  0.0417 -0.0797
14808PP      PP24912  14.623   6.837   2.786 -0.2022 -0.3498 -0.0565
14809PP      PP24913  11.772  15.705   3.340 -0.0834 -0.1032 -0.1495
14810PP      PP24914   0.039   0.860   1.565  0.1652  0.0639 -0.0237
14811PP      PP24915  14.741   1.682   9.101  0.3567 -0.0738 -0.2047
14812PP      PP24916   2.567   1.672   1.668  0.0805 -0.0385  0.0121
14813PP      PP24917   7.843   6.443   8.656 -0.1894 -0.0756  0.0206
14814PP      PP24918   0.202   5.531   8.873 -0.1268  0.0834 -0.2147
14815PP      PP24919   6.893   1.711   9.592  0.1862 -0.2893 -0.2726
14816PP      PP24920   6.926   3.454   2.132  0.0737 -0.4101  0.2562
14817PP      PP24921   4.251   2.360   3.054  0.0666  0.2135  0.2064
14818PP      PP24922  10.883  15.056  10.603  0.0853 -0.0547 -0.1108
14819PP      PP24923   4.962  12.377   0.735  0.2406  0.4324 -0.0801
14820PP      PP24924  14.959   6.649  12.523 -0.1150 -0.1009  0.1323
14821PP      PP24925  14.840   3.191  13.212  0.1666  0.1607 -0.2974
14822PP      PP24926   7.793  10.939   2.258  0.2328  0.0098  0.2397
14823PP      PP24927  15.344   4.478   0.108 -0.1479  0.0872  0.2792
14824PP      PP24928  11.850   4.948   1.661 -0.4585 -0.0851 -0.0204
14825PP      PP24929   4.341   5.508   1.255 -0.0830  0.3032 -0.1889
14826PP      PP24930   9.564   2.137  10.160  0.0248 -0.0417 -0.1557
14827PP      PP24931   5.367  11.877   9.498 -0.2177 -0.0426  0.2927
14828PP      PP24932   1.657   7.332  12.306 -0.2594 -0.2439  0.0508
14829PP      PP24933  10.965   8.520  10.821  0.0399 -0.2978  0.0897
14830PP      PP24934   0.987  10.600   2.711  0.1760  0.1599 -0.0312
14831PP      PP24935   3.337  11.619   2.405 -0.0526 -0.0478 -0.0791
14832PP      PP24936   3.802   6.583   1.303 -0.0861 -0.3278 -0.2987
14833PP      PP24937  11.452  11.212  12.654  0.1075  0.1922  0.0346
14834PP      PP24938   2.712   0.735   3.276  0.1901 -0.0999  0.0219
14835PP      PP24939   9.509  14.458  13.507 -0.3810  0.3345  0.0243
14836PP      PP24940  11.662  10.715   3.977 -0.0354 -0.1557 -0.1104
14837PP      PP24941   4.905  15.610  12.653 -0.1308 -0.0346 -0.1373
14838PP      PP24942   5.119   9.454   4.687 -0.2253 -0.1444  0.1975
14839PP      PP24943   1.218  11.953  12.850  0.2125  0.2502 -0.1646
14840PP      PP24944   2.434  11.251   2.048  0.2729  0.2121  0.0246
14841PP      PP24945   8.727   1.519  10.393 -0.0494  0.2848 -0.1685
14842PP      PP24946   5.678   8.387  11.702 -0.0840  0.1392 -0.1419
14843PP      PP24947  11.506   5.271   3.490  0.2716 -0.2444 -0.1223
14844PP      PP24948   4.897   1.662   4.271 -0.2634  0.0252  0.1428
14845PP      PP24949  11.011   9.424   1.005  0.2894 -0.3041  0.3646
14846PP      PP24950   0.364  13.125  11.861  0.1494  0.0389  0.0597
14847PP      PP24951  12.430   6.865   0.307  0.2682 -0.1157  0.2783
14848PP      PP24952  14.744   3.837   0.906  0.1542  0.2568 -0.1225
14849PP      PP24953   6.125   4.122  11.355 -0.0510  0.2339  0.0921
14850PP      PP24954   9.807   5.445  11.321 -0.0644  0.0764 -0.1883
14851PP      PP24955  13.837   5.275   7.662 -0.1185 -0.2852 -0.1325
14852PP      PP24956   1.677   7.049  13.490 -0.0162  0.0770 -0.1667
14853PP      PP24957  14.089  13.147   4.717  0.0721 -0.0606  0.0395
14854PP      PP24958   0.961   0.796   3.366 -0.0939 -0.1187 -0.0243
14855PP      PP24959   0.189  11.906  10.663 -0.0955  0.0797 -0.0359
14856PP      PP24960   3.314  14.879   1.325 -0.0981  0.0079 -0.1786
14857PP      PP24961  12.944   2.950   1.442 -0.1844 -0.3906 -0.0763
14858PP      PP24962   1.674   9.455  10.107 -0.2779 -0.0276  0.4009
14859PP      PP24963   4.273  15.296  10.110  0.0673 -0.3393 -0.0350
14860PP      PP24964   2.349   2.662   3.931  0.1777  0.0846 -0.0316
14861PP      PP24965  14.433   2.641   1.989 -0.2003 -0.2945  0.1927
14862PP      PP24966   2.460  10.178   1.263 -0.3173  0.2124  0.1732
14863PP      PP24967   1.585   3.494   1.835  0.2608  0.2098  0.3656
14864PP      PP24968  12.956  14.751   8.634  0.0446  0.3035  0.2093
14865PP      PP24969   4.795  11.996  10.971 -0.3248 -0.0398  0.4362
14866PP      PP24970  13.633   6.725   1.107  0.3466 -0.1745 -0.0326
14867PP      PP24971  15.172  12.981   3.089 -0.0826 -0.2180  0.2250
14868PP      PP24972   1.992   6.052  12.022 -0.2746 -0.0350  0.0268
14869PP      PP24973  10.251   6.250  11.136 -0.1930  0.0290 -0.1718
14870PP      PP24974  13.524   3.633   4.214  0.0663  0.0406  0.1453
14871PP      PP24975   2.403   5.705  10.666  0.1258 -0.0102 -0.2239
14872PP      PP24976   0.407   8.776   8.674 -0.0635 -0.0491 -0.2417
14873PP      PP24977   6.311  11.472   9.535 -0.0526 -0.1488 -0.0919
14874PP      PP24978  10.363   9.950  11.699  0.0321  0.3006 -0.0366
14875PP      PP24979   6.407   3.544  12.158  0.5648 -0.1212 -0.0553
14876PP      PP24980   9.783   7.799  10.392  0.1149  0.1000  0.0657
14877PP      PP24981  14.851  14.372  12.658  0.0934  0.2318  0.1151
14878PP      PP24982   4.623   0.286  13.370  0.1982 -0.2276 -0.2263
14879PP      PP24983   0.522   7.715  10.533  0.0062 -0.0284 -0.0644
14880PP      PP24984   7.614   0.104  13.123 -0.0714 -0.1181  0.0755
14881PP      PP24985   6.413   4.266   3.842  0.1358  0.0310 -0.0938
14882PP      PP24986   3.392   8.814   3.362 -0.1520 -0.0050 -0.1126
14883PP      PP24987  15.117   6.398   1.257 -0.1075 -0.0229  0.1026
14884PP      PP24988  10.239  15.653  13.486  0.1815 -0.1903 -0.0273
14885PP      PP24989   6.547  15.315   9.960 -0.1948 -0.0253  0.1808
14886PP      PP24990   5.812   8.912   0.316 -0.2604  0.2729  0.0014
14887PP      PP24991   3.597  10.994   1.372 -0.1572 -0.1957 -0.0732
14888PP      PP24992   2.429   3.744  10.113 -0.1833 -0.0301  0.0107
14889PP      PP24993  11.727  10.688  10.048  0.1002  0.3054 -0.1432
14890PP      PP24994   4.798   3.428   8.712  0.0390 -0.0394 -0.0175
14891PP      PP24995   8.244  12.280  10.967 -0.2055 -0.2236  0.0069
14892PP      PP24996  13.679   6.512   1.809  0.1287  0.1745 -0.0712
14893PP      PP24997  12.216   3.774   2.539  0.0920 -0.0054 -0.0234
14894PP      PP24998  14.218   3.116   8.572  0.2697 -0.0325  0.1129
14895PP      PP24999  14.546   9.869   0.702 -0.1640  0.0209  0.0864
14896PP      PP25000  14.899   1.121   1.502 -0.1888  0.3561 -0.2240
14897PP      PP25001  10.079  11.156  11.790  0.1800  0.3242 -0.0046
14898PP      PP25002  11.405   3.444   2.255  0.2151 -0.1120 -0.0988
14899PP      PP25003   5.075   8.443   0.612 -0.0961 -0.0169  0.0917
14900PP      PP25004   7.929   7.758  12.135 -0.1385 -0.0121  0.0672
14901PP      PP25005  15.474  11.120  12.695  0.1917 -0.0388  0.1961
14902PP      PP25006   9.579   9.248   9.599 -0.0237 -0.1147  0.0073
14903PP      PP25007  11.227  15.481   0.732  0.1710 -0.2380  0.0207
14904PP      PP25008   4.803  10.376   4.693 -0.2707 -0.3942 -0.0273
14905PP      PP25009  13.752   7.007   3.230 -0.0345  0.1880  0.0188
14906PP      PP25010   2.060   3.397   2.856 -0.4801 -0.2902 -0.2557
14907PP      PP25011   6.402   4.927   8.234  0.5315  0.3341 -0.1199
14908PP      PP25012   2.722   7.462   2.576  0.2415 -0.1551  0.1876
14909PP      PP25013  13.853  11.921   1.297  0.0057 -0.0683  0.0868
14910PP      PP25014   8.921   6.841  10.266  0.0180  0.0493 -0.2909
14911PP      PP25015   1.783   7.306   3.820 -0.3455  0.1337  0.0539
14912PP      PP25016   0.386  15.668   2.737 -0.2498 -0.3408 -0.0201
14913PP      PP25017  10.960   9.014  10.411 -0.2055  0.3310  0.1215
14914PP      PP25018   8.355  10.657  12.806 -0.1949  0.3093  0.0348
14915PP      PP25019  13.122  12.623  10.116 -0.0625 -0.3088 -0.3597
14916PP      PP25020  11.990   2.857   2.896 -0.1723  0.0710  0.0628
14917PP      PP25021   6.980  14.434   3.368 -0.0132  0.0673  0.1757
14918PP      PP25022   5.381   4.606   9.737 -0.3828 -0.0255 -0.0497
14919PP      PP25023   3.661  11.744   2.018  0.0928  0.3223  0.5015
14920PP      PP25024   7.735  12.382   0.576  0.3767  0.0804  0.1475
14921PP      PP25025   7.610  10.963   3.309  0.1200  0.3261 -0.2164
14922PP      PP25026  12.168  12.962  10.976  0.1887 -0.2317 -0.3188
14923PP      PP25027   4.310   3.838   0.700  0.1164 -0.3188 -0.0224
14924PP      PP25028   4.449   4.832   1.617 -0.1991  0.0732 -0.0401
14925PP      PP25029  11.840  15.003  13.472  0.0806  0.1167  0.0059
14926PP      PP25030   0.736  13.393   1.915 -0.0387  0.0753 -0.0642
14927PP      PP25031  13.796  13.508  11.385 -0.3032 -0.0304  0.2297
14928PP      PP25032   4.181   4.390   1.371  0.0985 -0.1782 -0.1608
14929PP      PP25033   2.487   7.092  12.597 -0.0944  0.4918  0.0647
14930PP      PP25034   0.352   0.221   3.163 -0.1926 -0.1222  0.3638
14931PP      PP25035   2.953  14.021   9.497  0.1968  0.1017 -0.0749
14932PP      PP25036   4.144   4.611   2.270  0.2442 -0.1632 -0.0016
14933PP      PP25037  11.300   6.071   8.393  0.1487  0.1505 -0.0934
14934PP      PP25038   1.513  14.104   1.322  0.0929 -0.1802 -0.2822
14935PP      PP25039  14.645  11.367  10.488  0.1036 -0.2380  0.0913
14936PP      PP25040   7.568   4.127  13.346  0.1565 -0.0828  0.3051
14937PP      PP25041   1.630  10.367  11.596  0.1439  0.1037 -0.0471
14938PP      PP25042   8.030  14.108  13.409 -0.4652 -0.0636  0.0832
14939PP      PP25043   3.505   7.265   9.786 -0.2839  0.0844  0.0734
14940PP      PP25044   7.927  13.076  10.359 -0.1445 -0.0670 -0.1326
14941PP      PP25045   4.043  10.407   1.123 -0.0841 -0.2546  0.1658
14942PP      PP25046   3.953  13.450  11.208  0.0065  0.0068  0.1582
14943PP      PP25047  11.091  11.217  11.202  0.1973 -0.0264 -0.1043
14944PP      PP25048  11.277   3.452   0.809  0.0350  0.1398 -0.1991
14945PP      PP25049   7.947  15.283  10.517  0.0279  0.0180  0.0591
14946PP      PP25050   0.974   1.160  12.876 -0.1373  0.1226  0.1558
14947PP      PP25051   6.962   9.489   9.590 -0.0062  0.1261  0.2915
14948PP      PP25052   5.956   3.584   0.790  0.2273 -0.1758  0.0509
14949PP      PP25053  12.795   5.592  11.797 -0.4266  0.0746  0.1258
14950PP      PP25054   9.623   7.294  12.832  0.0502  0.0247  0.4567
14951PP      PP25055  15.366   5.949   8.649  0.1910  0.2933 -0.0202
14952PP      PP25056   1.015   3.979  12.693 -0.1942 -0.0739  0.0692
14953PP      PP25057  15.842  12.066  10.211 -0.3556 -0.0919 -0.0854
14954PP      PP25058   9.028   7.034   9.278  0.1747 -0.0802  0.1426
14955PP      PP25059   5.048   1.406  12.782 -0.0531 -0.2112 -0.2964
14956PP      PP25060   8.453   2.422   1.448  0.2387 -0.1980  0.1366
14957PP      PP25061  14.421   4.616  10.800  0.1286 -0.0851 -0.0541
14958PP      PP25062   2.528  11.916  11.001  0.0391  0.0087  0.2053
14959PP      PP25063   1.600  12.706  11.699 -0.3691 -0.2201 -0.1314
14960PP      PP25064   9.884  12.751   1.461  0.0370  0.3126  0.0091
14961PP      PP25065   2.865   7.019  10.212 -0.1263  0.0042  0.0513
14962PP      PP25066   3.750   2.684  12.515 -0.2118 -0.2265 -0.0834
14963PP      PP25067  12.443   8.186   9.293  0.2024 -0.0364 -0.0573
14964PP      PP25068   8.590   7.235   8.897  0.0567  0.1821  0.0354
14965PP      PP25069   2.378   2.282  10.754  0.0395  0.1008 -0.1719
14966PP      PP25070   8.167   0.603   3.944  0.4487 -0.0614 -0.0624
14967PP      PP25071  15.338  15.426   0.479  0.0088 -0.1009 -0.0894
14968PP      PP25072   4.591   9.350   1.405  0.0336 -0.0273  0.1662
14969PP      PP25073   2.271   1.364   0.151  0.0411  0.1827  0.0185
14970PP      PP25074   9.764   2.340  12.298  0.0494  0.2696  0.0410
14971PP      PP25075  14.074   7.855   1.596 -0.2665  0.1364  0.2266
14972PP      PP25076  10.929   8.975   9.607  0.0538 -0.0155  0.0913
14973PP      PP25077  11.578  11.365  10.418  0.0605 -0.2159 -0.0834
14974PP      PP25078   1.780   0.303  11.368  0.0779 -0.1776  0.4143
14975PP      PP25079  15.327  11.526   4.298  0.2630  0.0824 -0.5859
14976PP      PP25080   0.344   9.718  11.876 -0.0813 -0.1570 -0.4408
14977PP      PP25081   3.115   0.816   4.579  0.1401  0.0380  0.1269
14978PP      PP25082   8.856   8.152   3.713 -0.1680  0.0583 -0.0779
14979PP      PP25083  13.818   2.239  13.170  0.1184  0.2460  0.0939
14980PP      PP25084   2.861  10.797   2.899 -0.0990  0.0947 -0.1362
14981PP      PP25085   6.438   8.061  12.351  0.1149 -0.0958  0.0507
14982PP      PP25086  15.118   9.585  11.823 -0.1723  0.2720  0.3170
14983PP      PP25087   1.250   8.247   8.674  0.1353 -0.4723  0.0084
14984PP      PP25088   6.944   3.470   3.336  0.2998 -0.0275  0.0033
14985PP      PP25089  15.781   7.951   8.757  0.2138 -0.3700 -0.0799
14986PP      PP25090   0.784  13.263  11.135  0.3088  0.2344  0.0585
14987PP      PP25091  14.980  12.761  12.696  0.0434 -0.2191  0.3297
14988PP      PP25092   6.730  11.739   9.111 -0.0513 -0.1714  0.0578
14989PP      PP25093  11.447   1.896   2.315 -0.1544  0.0407 -0.3464
14990PP      PP25094   0.987  13.368   0.112 -0.0633  0.1644 -0.2023
14991PP      PP25095   0.358   9.802   3.766 -0.2149  0.0239  0.2300
14992PP      PP25096  15.586  12.297   9.814  0.1044 -0.1100 -0.0368
14993PP      PP25097   7.208  12.985   0.401 -0.1301 -0.0749 -0.2228
14994PP      PP25098   7.987   9.505   9.610  0.3672 -0.1353 -0.0228
14995PP      PP25099   4.192  14.304   3.736 -0.2635  0.0526  0.2134
14996PP      PP25100   2.916   5.785   4.179 -0.0232  0.1594  0.0344
14997PP      PP25101   3.489   3.678  10.164  0.1741  0.0197  0.1213
14998PP      PP25102   4.785  14.659   1.331 -0.0420  0.1486 -0.0751
14999PP      PP25103  12.964  12.922   2.682  0.0821  0.2258  0.1337
15000PP      PP25104   7.386   5.855  13.493 -0.0286 -0.0359 -0.0008
15001PP      PP25105   6.595   2.597   0.018 -0.0014  0.1863 -0.0327
15002PP      PP25106  14.079  12.957   9.229 -0.0712 -0.3061  0.2519
15003PP      PP25107   8.590  15.323  10.933 -0.5500 -0.0706 -0.2003
15004PP      PP25108   7.577   5.806   9.141 -0.0621 -0.2544 -0.2089
15005PP      PP25109   1.445   8.319  10.585  0.2737  0.0846 -0.0312
15006PP      PP25110  12.636  14.315   2.543 -0.1884 -0.1261 -0.3004
15007PP      PP25111   2.740  13.618   0.658  0.2792  0.1407  0.3307
15008PP      PP25112   5.362   8.046  11.553 -0.1397  0.2402  0.3435
15009PP      PP25113   9.996   0.768  11.213  0.0628  0.4622 -0.0260
15010PP      PP25114  10.926   9.241  10.843 -0.2046 -0.1262 -0.0784
15011PP      PP25115   5.543  13.869   9.265  0.1177 -0.0734 -0.1296
15012PP      PP25116   4.811  15.224   3.735 -0.1912 -0.4052 -0.0518
15013PP      PP25117   1.422   1.069   1.612 -0.1301 -0.1132 -0.2289
15014PP      PP25118   9.514  14.132  10.194  0.2088  0.2520 -0.1881
15015PP      PP25119  11.666   6.954  10.208 -0.1009 -0.2286 -0.0463
15016PP      PP25120   9.721   9.750  12.705  0.1236 -0.0854 -0.3630
15017PP      PP25121  14.324  11.190   8.958 -0.1098  0.0400  0.2444
15018PP      PP25122   2.622   9.467  12.925  0.3908 -0.0131 -0.3576
15019PP      PP25123   0.506  14.914   2.146  0.0695  0.3403  0.2476
15020PP      PP25124   3.788   3.221   4.330 -0.4526  0.1615 -0.3035
15021PP      PP25125  13.299  11.619   9.725  0.1819 -0.0121  0.0478
15022PP      PP25126   7.927   1.380   2.878  0.1799  0.0147  0.0739
15023PP      PP25127  15.375  12.734  11.414  0.0677  0.0793  0.1438
15024PP      PP25128   3.321   9.771   0.831  0.1296 -0.1546 -0.3040
15025PP      PP25129  10.057   1.152   0.337 -0.1530 -0.0847 -0.2611
15026PP      PP25130   4.547   7.765   8.863  0.0303 -0.1154  0.0398
15027PP      PP25131  10.362  14.168  10.656 -0.3253 -0.0503  0.0474
15028PP      PP25132  13.824   5.179   9.717 -0.2223  0.0392 -0.2257
15029PP      PP25133   7.818   7.623   0.886  0.1375  0.0372 -0.1067
15030PP      PP25134   1.122  15.092   2.718  0.2084 -0.3553 -0.1764
15031PP      PP25135   3.606   9.505   1.952  0.1110  0.4588 -0.2594
15032PP      PP25136  15.863   6.826   0.118 -0.2503  0.1863  0.0970
15033PP      PP25137   9.328   6.027  12.998 -0.1924 -0.0496 -0.1470
15034PP      PP25138  15.655   0.628  12.666  0.1206 -0.0181  0.0528
15035PP      PP25139  12.919   7.124   2.002 -0.2764 -0.0720  0.1340
15036PP      PP25140   2.460   3.720  13.109  0.0430  0.1378 -0.1219
15037PP      PP25141  13.839   3.668  12.094  0.0382 -0.0138  0.1535
15038PP      PP25142   0.864  14.418  10.401  0.1506  0.0259 -0.0361
15039PP      PP25143   1.189  14.316  13.349  0.0908  0.0362  0.1630
15040PP      PP25144   1.035   0.179   2.484 -0.0235  0.2182 -0.0360
15041PP      PP25145   1.072  12.412  11.643  0.0079 -0.1104 -0.2532
15042PP      PP25146   1.972   5.418   0.524 -0.0127  0.0696 -0.0334
15043PP      PP25147   7.849   1.120  10.566  0.3886 -0.2279 -0.0023
15044PP      PP25148   8.797  12.324   4.213 -0.0003  0.1162  0.1838
15045PP      PP25149   6.275   9.277   0.014 -0.0603 -0.0472 -0.3055
15046PP      PP25150   2.635   7.283   3.401 -0.0212  0.0769  0.1993
15047PP      PP25151   3.549   0.448   3.095  0.1167 -0.0370  0.1412
15048PP      PP25152   7.579  13.298   8.681 -0.3469  0.4100 -0.0661
15049PP      PP25153   8.574  10.218  10.156 -0.0304 -0.0554 -0.0708
15050PP      PP25154  13.566  12.811  12.900  0.3396 -0.0120 -0.0272
15051PP      PP25155   8.001  14.624   2.210  0.0389  0.0929 -0.1471
15052PP      PP25156  14.124   9.764   3.481  0.0161 -0.0138 -0.2636
15053PP      PP25157   8.355   8.852   2.355  0.1345 -0.1853  0.0014
15054PP      PP25158  10.688   5.980   0.287  0.1170  0.0954  0.0166
15055PP      PP25159   4.039   0.682   1.653  0.2962 -0.0109 -0.0345
15056PP      PP25160   0.067   6.758  12.702 -0.0246  0.0845 -0.0910
15057PP      PP25161   0.340  14.056  12.902  0.3404 -0.1483  0.2168
15058PP      PP25162  10.446   7.009  10.763 -0.2247 -0.0267 -0.1114
15059PP      PP25163  12.984   2.116   3.068 -0.2463 -0.0663  0.1150
15060PP      PP25164   8.522  15.869  11.288  0.3331  0.4123  0.0374
15061PP      PP25165   1.977   1.503   0.538  0.1081 -0.0569  0.1197
15062PP      PP25166   9.000   0.366  11.831 -0.1420 -0.0515  0.0441
15063PP      PP25167   0.369  12.337   9.552  0.1189 -0.3452  0.0501
15064PP      PP25168   9.080  15.863   1.620 -0.0699 -0.1716  0.1040
15065PP      PP25169   7.366  11.874   8.650  0.0171  0.0356  0.2444
15066PP      PP25170   4.778  14.893   3.336  0.1760 -0.1592 -0.1704
15067PP      PP25171   3.051  15.701   3.533  0.0314 -0.0163  0.0761
15068PP      PP25172   7.301   2.552  10.501  0.2214  0.0351 -0.1676
15069PP      PP25173   0.369  14.753   1.110 -0.3677  0.0480  0.0237
15070PP      PP25174  11.528  14.402   4.591 -0.1150  0.0686 -0.1401
15071PP      PP25175  12.747   7.699   2.886 -0.2398 -0.1881  0.2037
15072PP      PP25176   9.737   4.196  12.673 -0.0151 -0.3390  0.0694
15073PP      PP25177   1.630   5.283   2.212 -0.3686 -0.0570 -0.0128
15074PP      PP25178   3.780   9.351  10.572 -0.0176  0.2593  0.0538
15075PP      PP25179   1.911   9.017   3.678 -0.2919  0.1748 -0.1907
15076PP      PP25180  13.338   9.870   9.323  0.2341 -0.2850  0.5963
15077PP      PP25181   4.208  12.775   2.341 -0.2397 -0.0486 -0.2187
15078PP      PP25182  11.827   8.645  11.803 -0.2513  0.1189  0.0982
15079PP      PP25183  15.375  11.758   3.824  0.2573  0.3076 -0.0832
15080PP      PP25184   8.499   6.073   8.659  0.1107 -0.0572  0.3733
15081PP      PP25185  11.583  11.182  11.315 -0.0788 -0.2486 -0.0210
15082PP      PP25186   8.325   4.811   4.287 -0.0961  0.3541 -0.0104
15083PP      PP25187   8.435  14.266   4.884  0.1224  0.1081 -0.0894
15084PP      PP25188   7.665   9.621   3.147 -0.0583 -0.2178  0.2261
15085PP      PP25189   3.873   3.229  10.944  0.0893 -0.0697 -0.0316
15086PP      PP25190   7.070  15.007  11.738  0.1190 -0.2162 -0.1000
15087PP      PP25191  13.599   8.578   3.732 -0.3655 -0.2777 -0.0325
15088PP      PP25192   9.170  13.383   9.942 -0.0664  0.0357  0.0429
15089PP      PP25193   7.062   9.062   1.449 -0.0995 -0.1432  0.2019
15090PP      PP25194   4.654  12.543   2.461  0.0818 -0.0247 -0.3928
15091PP      PP25195   8.250   8.437   3.721  0.1907  0.0071  0.0794
15092PP      PP25196  15.210   5.505  13.176 -0.1567  0.0813  0.1597
15093PP      PP25197  10.732   7.880  11.844  0.1649 -0.1387 -0.3356
15094PP      PP25198   1.058  14.621   2.430  0.1008  0.3268  0.3786
15095PP      PP25199  14.137  12.474  10.485 -0.1903  0.1753  0.0332
15096PP      PP25200  15.615  11.174  10.216 -0.2065 -0.1408  0.1063
15097PP      PP25201   6.704   8.203   3.602 -0.2486  0.1571 -0.0362
15098PP      PP25202  12.216   1.885   9.781 -0.0098 -0.1063  0.1968
15099PP      PP25203   1.800   1.704   9.301  0.0374  0.3390  0.1935
15100PP      PP25204  12.538  11.717   0.070  0.1125 -0.2124  0.1479
15101PP      PP25205  14.181   1.564   3.070 -0.1563 -0.0645  0.1121
15102PP      PP25206   3.426   9.543   3.779  0.2415 -0.0708 -0.1997
15103PP      PP25207   0.377   3.361  10.947  0.2613  0.2400 -0.5302
15104PP      PP25208   0.407  10.269   9.035 -0.1794 -0.1302  0.0314
15105PP      PP25209   6.599  11.530  11.170 -0.0997  0.0971 -0.1373
15106PP      PP25210  12.591  11.753   9.282  0.0252  0.3933 -0.0806
15107PP      PP25211  14.693   3.957  11.443  0.1131  0.0642 -0.0097
15108PP      PP25212  12.259   9.535  13.520 -0.2277 -0.3951 -0.1519
15109PP      PP25213   3.211   9.147   9.394 -0.3058  0.4678 -0.0326
15110PP      PP25214   7.019   1.197  10.592  0.0212  0.1173 -0.0614
15111PP      PP25215   3.137   6.506   9.045  0.0345  0.4201 -0.0292
15112PP      PP25216  14.711   2.088  11.766  0.0189 -0.2794  0.2138
15113PP      PP25217  12.962   7.292  10.276  0.2634  0.0120 -0.1326
15114PP      PP25218   1.939  11.164  12.092 -0.2691  0.5372  0.1965
15115PP      PP25219   6.174  14.978   9.958 -0.0402  0.1071  0.1171
15116PP      PP25220  15.355   0.112   2.728  0.1460 -0.0643 -0.1332
15117PP      PP25221  11.355   8.801   0.761 -0.2653  0.3008 -0.2961
15118PP      PP25222   3.601  10.366   0.077  0.1752 -0.1246  0.3114
15119PP      PP25223  13.023   6.798   0.471  0.1455 -0.1284 -0.0500
15120PP      PP25224   9.809  15.537  10.364 -0.0157 -0.3863  0.0260
15121PP      PP25225  12.628   6.884  10.449  0.1910 -0.0967 -0.0561
15122PP      PP25226   8.009   3.015   3.521  0.2493  0.2094 -0.2617
15123PP      PP25227   4.400   7.187  10.691 -0.1676 -0.0608  0.1385
15124PP      PP25228  13.472   2.328  11.461 -0.4527  0.1636 -0.0705
15125PP      PP25229  14.096   5.799   2.221  0.2153 -0.1334  0.0777
15126PP      PP25230   8.700   6.393  11.216 -0.0781  0.0872  0.3763
15127PP      PP25231  15.241   7.722   2.786  0.1374  0.0741 -0.4995
15128PP      PP25232  10.395  11.767  11.918 -0.2922 -0.0405  0.1070
15129PP      PP25233  12.003   1.379  12.923 -0.0241 -0.1192  0.0377
15130PP      PP25234  10.094   0.144   0.299 -0.1323  0.1122  0.1208
15131PP      PP25235   5.194  14.289  12.871  0.0648 -0.3923 -0.1008
15132PP      PP25236  10.563   2.818  12.417 -0.0188 -0.2899 -0.2725
15133PP      PP25237   1.373  10.749  11.308 -0.2969 -0.3316 -0.0421
15134PP      PP25238   0.399  13.317   0.826 -0.3232  0.0381 -0.0476
15135PP      PP25239   5.502   8.157  10.792  0.0932 -0.0648 -0.0451
15136PP      PP25240   4.337   1.114  12.484  0.0742  0.2378  0.0698
15137PP      PP25241   5.997   5.465  11.257 -0.1283  0.1237 -0.0430
15138PP      PP25242   7.697  13.017   0.574 -0.1676  0.0786 -0.2330
15139PP      PP25243   1.779  10.792   1.739 -0.2648 -0.2142  0.0560
15140PP      PP25244   5.482  13.199   9.406  0.0990  0.2059 -0.2225
15141PP      PP25245  10.645  15.803  11.505 -0.1199  0.3597  0.3124
15142PP      PP25246   2.871   2.318  12.719  0.0413 -0.1443 -0.0780
15143PP      PP25247   0.030  10.579   3.730 -0.1965  0.0438 -0.0324
15144PP      PP25248   5.313   9.909  12.391 -0.2093 -0.0514 -0.0560
15145PP      PP25249  15.421  10.422  10.634 -0.0966 -0.0819  0.0986
15146PP      PP25250   6.993  15.173   3.704  0.3069 -0.1781 -0.2870
15147PP      PP25251   7.856   0.184  12.196  0.1833  0.1869 -0.3239
15148PP      PP25252   6.737   9.057  12.035  0.3702  0.0792  0.2383
15149PP      PP25253   1.884   2.456   1.529 -0.3291  0.1211  0.0754
15150PP      PP25254   7.595   8.488  10.768 -0.1846  0.0663  0.0885
15151PP      PP25255  10.814   8.335  12.581 -0.0167  0.0370  0.1991
15152PP      PP25256   8.862  13.212  10.974 -0.0433  0.1950  0.2336
15153PP      PP25257   2.840   5.328   4.572  0.2054 -0.1103 -0.0111
15154PP      PP25258   8.657   4.409   1.822  0.1509  0.0465 -0.0300
15155PP      PP25259  13.530  12.911   0.296 -0.2472  0.2101  0.2308
15156PP      PP25260   7.455   0.840  11.649 -0.0172 -0.0076  0.2678
15157PP      PP25261   4.231  13.756   2.356 -0.1568 -0.0353 -0.2906
15158PP      PP25262  13.071   0.264   2.924 -0.0015  0.1191  0.2338
15159PP      PP25263   2.948  12.309  13.266  0.0213 -0.0271  0.0015
15160PP      PP25264   5.098   3.106   0.139  0.3896  0.3222  0.1155
15161PP      PP25265  11.125   9.832  12.428 -0.0730  0.2721  0.0755
15162PP      PP25266  10.994  15.438   5.153  0.3072 -0.3347 -0.0776
15163PP      PP25267   9.991   0.835  10.405 -0.0394  0.1442 -0.1542
15164PP      PP25268   7.092  14.332   2.904  0.2454  0.3771 -0.0372
15165PP      PP25269   9.275   8.128   9.545 -0.2254  0.2736  0.0741
15166PP      PP25270  14.572   8.344   0.425  0.3400  0.2929  0.0689
15167PP      PP25271  10.737  11.233  12.650  0.1571  0.4308  0.1818
15168PP      PP25272   2.060  14.732  13.478  0.2643 -0.1294 -0.1693
15169PP      PP25273   8.040   7.913  10.193  0.0764  0.1876 -0.1531
15170PP      PP25274  13.220   6.622   1.473 -0.0731  0.2826  0.2156
15171PP      PP25275   7.421   3.779   3.824 -0.2041 -0.1369  0.2963
15172PP      PP25276   3.227  14.457   3.866 -0.0688 -0.2329  0.1971
15173PP      PP25277  12.559   8.657   2.916  0.2571  0.0074 -0.0748
15174PP      PP25278   4.421  11.895  11.757  0.2644 -0.0363 -0.0235
15175PP      PP25279   0.507  10.916   9.543 -0.2753  0.2237  0.1701
15176PP      PP25280   8.653   9.718  10.657  0.1257 -0.0430 -0.1561
15177PP      PP25281  11.418  15.108  11.194  0.2162  0.3675  0.0578
15178PP      PP25282  15.027   2.775  12.319  0.4026  0.0622  0.1854
15179PP      PP25283  15.286   8.327  12.096  0.1161 -0.3343 -0.2626
15180PP      PP25284   2.787   8.407  12.578  0.0476  0.0549 -0.1263
15181PP      PP25285  12.048  10.158   0.493 -0.3112  0.0032 -0.0890
15182PP      PP25286  15.305   3.935   9.970  0.0993  0.0400 -0.1824
15183PP      PP25287  15.508  10.635  11.173 -0.2852  0.2921  0.3107
15184PP      PP25288  15.139   7.329   2.361  0.0673  0.1417 -0.1254
15185PP      PP25289   6.317  13.804   3.745 -0.0024  0.1594  0.2398
15186PP      PP25290   5.149  10.493  11.153  0.2047  0.0410 -0.1712
15187PP      PP25291  10.471   7.592   4.008 -0.0051 -0.3577 -0.0657
15188PP      PP25292   9.509  10.942   9.750  0.3342  0.0131  0.0510
15189PP      PP25293   9.367  10.666   0.067 -0.0957 -0.1311  0.1282
15190PP      PP25294   3.513   5.805   3.819  0.1413 -0.1724 -0.3937
15191PP      PP25295  15.693  14.449  10.825  0.1898 -0.0250 -0.0198
15192PP      PP25296  12.173   0.102   3.154 -0.0988 -0.3910 -0.0217
15193PP      PP25297  10.288   6.553   2.248 -0.0139 -0.0767 -0.1963
15194PP      PP25298   8.117   2.073   0.128  0.4515  0.0397  0.5125
15195PP      PP25299  13.590   1.851   2.421  0.1021 -0.2025 -0.1392
15196PP      PP25300   4.079   2.677   2.198 -0.3095  0.0455  0.1573
15197PP      PP25301   3.376  12.019   3.765  0.0067  0.0782  0.1586
15198PP      PP25302   2.058   9.383  11.034 -0.3201 -0.1718 -0.0046
15199PP      PP25303  15.702   0.545  11.511  0.0717 -0.3149  0.0785
15200PP      PP25304  12.250   2.930  11.281 -0.2390  0.1036 -0.2178
15201PP      PP25305   8.977   9.609   3.471  0.1200  0.0723  0.1086
15202PP      PP25306  13.723   3.275  12.389 -0.0645 -0.1646 -0.0032
15203PP      PP25307  10.351   0.377  10.311 -0.1342 -0.1621  0.0803
15204PP      PP25308   9.317  10.948  11.250 -0.0524 -0.0250 -0.0259
15205PP      PP25309  11.083  11.904   0.666 -0.2071 -0.3270  0.2684
15206PP      PP25310  13.693   4.847  11.152  0.2631 -0.0349 -0.1746
15207PP      PP25311  12.822  14.929   4.576  0.1614 -0.3215 -0.3049
15208PP      PP25312   3.871   1.368   1.453 -0.0284 -0.3205  0.0224
15209PP      PP25313   5.595   1.547   3.590  0.0092  0.0248  0.1185
15210PP      PP25314  14.534   9.476   3.805 -0.2373  0.5403 -0.0846
15211PP      PP25315   6.930  12.632   4.122  0.2182 -0.1197  0.2440
15212PP      PP25316   9.700   4.481  12.229  0.0025 -0.0024 -0.0224
15213PP      PP25317   6.393  15.078   0.518 -0.0646 -0.0255 -0.2011
15214PP      PP25318   6.153  10.964  10.297 -0.2920 -0.1320 -0.1747
15215PP      PP25319   3.853  12.452   2.180  0.0867 -0.0529  0.1385
15216PP      PP25320  11.335   4.957   3.156 -0.1620  0.0606 -0.0425
15217PP      PP25321   5.758   2.986   9.600 -0.0756 -0.4469  0.2929
15218PP      PP25322  15.829   4.655   1.675  0.0009 -0.0980  0.1178
15219PP      PP25323   2.753   5.746  13.141  0.2193 -0.1332  0.2723
15220PP      PP25324   6.795   6.846  12.078 -0.1552  0.0931  0.0703
15221PP      PP25325   4.911   5.960  11.313  0.0182  0.1187 -0.2864
15222PP      PP25326   0.575   0.455   3.564  0.0247  0.2277 -0.1247
15223PP      PP25327   5.249   2.537  10.783  0.2779 -0.0598  0.1800
15224PP      PP25328   5.656  15.158  11.683 -0.3951  0.2534  0.1430
15225PP      PP25329   1.158   6.694   2.242 -0.3063  0.3412  0.3266
15226PP      PP25330   9.803  10.172   0.238  0.1522 -0.0671 -0.0171
15227PP      PP25331   3.017  13.960  12.395  0.0511  0.4813 -0.2597
15228PP      PP25332  15.738   4.287   8.634  0.2257  0.1155  0.1664
15229PP      PP25333   1.769  14.522   1.110 -0.0246 -0.2563  0.2129
15230PP      PP25334   1.590   0.647  10.018 -0.1865  0.2448  0.1635
15231PP      PP25335  15.291  14.036   1.345  0.0847  0.2813  0.0004
15232PP      PP25336  10.711  12.094  12.063 -0.2208  0.1543  0.0066
15233PP      PP25337   0.336  12.501  13.254 -0.1939 -0.1825 -0.0074
15234PP      PP25338  11.284   1.691   0.907  0.2333 -0.3288 -0.0549
15235PP      PP25339   0.867  12.922   0.274  0.0374  0.1304  0.0991
15236PP      PP25340   7.127   0.857  11.012  0.2966 -0.0879 -0.0464
15237PP      PP25341   7.226  10.987   2.935 -0.0370 -0.0586 -0.3325
15238PP      PP25342  12.794   9.729  11.770  0.3426  0.1197  0.1440
15239PP      PP25343   4.446   1.500   2.931 -0.2737  0.0749  0.2048
15240PP      PP25344  10.570   3.567  11.539  0.3587  0.0521  0.0813
15241PP      PP25345  13.238   0.122   1.191  0.1237 -0.1349 -0.1790
15242PP      PP25346   6.256  15.653   2.947 -0.0533 -0.1225 -0.3530
15243PP      PP25347   3.005   6.583   8.091 -0.2447 -0.1171 -0.0128
15244PP      PP25348   7.581   7.269   0.673 -0.3375  0.2446  0.0870
15245PP      PP25349  14.330   3.784  11.799  0.0701 -0.1064 -0.2770
15246PP      PP25350   2.554   3.017   9.884 -0.0727  0.4944 -0.4165
15247PP      PP25351   8.691  10.420   1.289  0.1062 -0.1899  0.1210
15248PP      PP25352  10.164   2.758   9.974  0.0856  0.0805 -0.0789
15249PP      PP25353   2.294   4.077   2.009  0.1541  0.2716  0.1114
15250PP      PP25354   3.274  14.354   2.709  0.3839 -0.2380 -0.0154
15251PP      PP25355  14.193   6.664  12.141 -0.0904 -0.0822  0.2107
15252PP      PP25356  15.557  10.947  12.219 -0.0641 -0.0956  0.2415
15253PP      PP25357   5.803  11.354   0.015  0.1663  0.1950 -0.2960
15254PP      PP25358   8.164   3.417   4.323  0.3544 -0.0653  0.1301
15255PP      PP25359   9.066   0.282   1.026  0.2273  0.4204  0.0283
15256PP      PP25360   8.643   0.414  11.060 -0.2528  0.0463  0.3857
15257PP      PP25361   5.887   2.936  11.289 -0.2408  0.2839  0.1638
15258PP      PP25362   4.378  13.413   3.708 -0.3115 -0.1139  0.0400
15259PP      PP25363  11.438  13.024  10.948 -0.1704 -0.2565 -0.2796
15260PP      PP25364   9.777   2.221  12.859 -0.0367  0.0872 -0.0219
15261PP      PP25365   0.073  13.271   9.929 -0.1091  0.2279 -0.0277
15262PP      PP25366  10.880  12.847  13.428  0.0816 -0.2864  0.0770
15263PP      PP25367   6.517   0.943   2.023  0.2097 -0.2727 -0.1451
15264PP      PP25368  14.937   3.532   2.039 -0.1081 -0.1420  0.3339
15265PP      PP25369   2.100  14.231   0.299 -0.1607  0.2688 -0.1462
15266PP      PP25370  10.425   4.432   0.320 -0.2843  0.0864 -0.0714
15267PP      PP25371   7.335   5.138   3.190 -0.1659 -0.2269 -0.0199
15268PP      PP25372   2.891   2.301  11.269 -0.0318 -0.1418 -0.0593
15269PP      PP25373   0.812   6.362  11.024 -0.6089  0.0800  0.0616
15270PP      PP25374   4.791   8.370  10.322 -0.1173  0.1113 -0.1102
15271PP      PP25375  14.455  14.116  11.985  0.0093 -0.0928 -0.0361
15272PP      PP25376   1.918   1.450   2.340  0.0411  0.0652 -0.0928
15273PP      PP25377  14.601  10.096   2.157  0.0676 -0.1963  0.0479
15274PP      PP25378  15.019  10.172  10.989  0.0624 -0.1353  0.1389
15275PP      PP25379   3.184   9.903  11.516  0.2594 -0.0487 -0.0995
15276PP      PP25380  13.712   0.961   1.475  0.0051 -0.1864  0.2327
15277PP      PP25381  13.620   5.159   3.322 -0.0287 -0.2814  0.2201
15278PP      PP25382   9.296  12.148  12.644  0.2968 -0.0399  0.2986
15279PP      PP25383   2.434   1.419  12.883  0.0365 -0.0407  0.0682
15280PP      PP25384   4.063   5.830   0.199 -0.0852 -0.1195 -0.2660
15281PP      PP25385   3.445   1.978  11.736  0.1465 -0.4032  0.0416
15282PP      PP25386   7.353  13.002  10.151 -0.1845  0.1155 -0.1599
15283PP      PP25387   4.714  13.443   9.999 -0.0521 -0.1269  0.1272
15284PP      PP25388   8.038   0.485   4.653  0.0184 -0.3624 -0.2417
15285PP      PP25389   7.422   0.720  10.571 -0.0306  0.0202  0.2714
15286PP      PP25390  11.484   8.871  12.955 -0.0381 -0.2675  0.1653
15287PP      PP25391  13.620   6.338  10.358 -0.0767 -0.0670  0.2766
15288PP      PP25392   0.097   0.674   3.328  0.1621  0.2867  0.0778
15289PP      PP25393  12.889   2.571   0.109 -0.1464 -0.0457 -0.0879
15290PP      PP25394   5.646   2.181   3.705 -0.1330 -0.1658 -0.3058
15291PP      PP25395   2.907   9.942  12.872 -0.0518 -0.0090  0.1952
15292PP      PP25396  10.776   9.186   3.984  0.2730  0.0511  0.0717
15293PP      PP25397   2.679  12.516   0.599  0.0541 -0.0974  0.0497
15294PP      PP25398  13.923  10.349   2.981 -0.2531 -0.2062  0.3107
15295PP      PP25399   9.452   6.345   9.239  0.2508 -0.0495 -0.1482
15296PP      PP25400   4.433   9.991  12.172  0.2731 -0.3240  0.0829
15297PP      PP25401   6.751  14.980   0.972  0.0784  0.1882  0.0271
15298PP      PP25402   4.069  15.780   3.701 -0.0061  0.2249 -0.0704
15299PP      PP25403   8.955   6.565   9.475  0.0825  0.3869 -0.1958
15300PP      PP25404  15.747   5.583   1.474  0.1651 -0.2413 -0.0275
15301PP      PP25405   0.052  10.083   9.970  0.2411  0.1427 -0.2588
15302PP      PP25406   1.071   5.307   0.435  0.0456  0.3506  0.1414
15303PP      PP25407   8.016  14.322   3.136 -0.1962 -0.2311 -0.3576
15304PP      PP25408  12.472   8.029   8.838 -0.0905 -0.2514  0.2297
15305PP      PP25409  14.368  14.468   2.300  0.0899 -0.2371  0.0938
15306PP      PP25410   6.417  12.123   9.479  0.1156 -0.1142 -0.1171
15307PP      PP25411  11.089   2.636  13.528 -0.1227 -0.3071 -0.0869
15308PP      PP25412   3.456   7.162  10.270  0.3145  0.1247  0.0199
15309PP      PP25413  13.601   2.999   0.504  0.2589 -0.0566 -0.2701
15310PP      PP25414  14.208   9.514   1.645  0.0427  0.2417 -0.3016
15311PP      PP25415   6.580   8.520   0.522 -0.1969  0.0899 -0.4609
15312PP      PP25416  14.816   7.071   7.859 -0.1257  0.1011 -0.0312
15313PP      PP25417   5.389  13.370   3.184  0.1688  0.3135 -0.0219
15314PP      PP25418  11.220   8.928   8.347 -0.0283  0.1029 -0.1689
15315PP      PP25419  12.298   2.107   1.685  0.1014  0.0300 -0.3290
15316PP      PP25420  14.887   5.219  12.507  0.0334 -0.2374  0.0141
15317PP      PP25421   0.533   4.653   3.004 -0.0796 -0.3637  0.1688
15318PP      PP25422   4.155   2.194   4.057 -0.2292 -0.1559 -0.2967
15319PP      PP25423   0.237  13.015  10.359 -0.1791  0.0987 -0.5385
15320PP      PP25424   0.549  12.221  11.593 -0.1565 -0.3613 -0.0707
15321PP      PP25425  11.033   3.447  11.568  0.0218  0.0965 -0.3517
15322PP      PP25426   5.623   9.910  11.889 -0.0453 -0.0986  0.0724
15323PP      PP25427   0.189   4.686   9.422 -0.1740  0.2431 -0.1436
15324PP      PP25428   0.560   9.468   1.142  0.2184  0.1530 -0.0695
15325PP      PP25429  12.167  13.516  12.403 -0.3189  0.1225 -0.0019
15326PP      PP25430   8.832   0.141   3.648  0.2402 -0.1938 -0.0724
15327PP      PP25431  11.985   6.136  11.145 -0.1307  0.3869 -0.1292
15328PP      PP25432   1.769   4.550   9.017  0.0070 -0.0966 -0.0796
15329PP      PP25433  14.269   4.225  12.691 -0.0805  0.2861  0.0632
15330PP      PP25434   2.792   5.448   9.226 -0.2375 -0.0607  0.1837
15331PP      PP25435   8.694  12.990   4.202 -0.1026 -0.1387  0.0795
15332PP      PP25436  12.389  10.425  12.471  0.0567  0.2175  0.2444
15333PP      PP25437   4.101   5.432  12.609 -0.2181 -0.2158 -0.2349
15334PP      PP25438   8.176   6.064  13.061 -0.1720  0.5251  0.0954
15335PP      PP25439   9.697   8.193   1.490 -0.3600 -0.3918  0.0444
15336PP      PP25440  11.014   5.598   8.987  0.1926  0.0487 -0.1902
15337PP      PP25441   0.107   6.968   3.729 -0.2692 -0.0015 -0.2846
15338PP      PP25442  14.810   0.180   4.072  0.3354 -0.0133 -0.3546
15339PP      PP25443  14.622  10.310  11.249  0.0981  0.0430  0.0085
15340PP      PP25444   5.067  15.408   9.528 -0.4684  0.2518  0.1773
15341PP      PP25445   3.051   5.410  13.364  0.0202 -0.3004  0.0361
15342PP      PP25446  11.301  11.083   4.107 -0.1010  0.1312 -0.3091
15343PP      PP25447   5.254   1.348   1.900  0.4290 -0.1850  0.0302
15344PP      PP25448  14.571  11.326   3.841 -0.3099 -0.0917 -0.2217
15345PP      PP25449   6.708  12.395  11.612  0.0452  0.2526 -0.1919
15346PP      PP25450  11.004   2.050   2.351  0.2094 -0.1994  0.2300
15347PP      PP25451   3.177  10.285   3.739  0.1994 -0.0680  0.1839
15348PP      PP25452   0.432  11.944   2.594  0.2925  0.0080 -0.1788
15349PP      PP25453   8.483  13.056  13.092 -0.2266 -0.0902  0.2236
15350PP      PP25454  11.464  13.686   3.093  0.0686  0.1039  0.2653
15351PP      PP25455   3.478   0.786   0.143 -0.0856  0.0720  0.2100
15352PP      PP25456  15.036  13.388  11.133  0.4918 -0.0682  0.1991
15353PP      PP25457   6.614  15.883   3.251 -0.1788 -0.1122  0.1846
15354PP      PP25458  10.513  10.178   3.600 -0.0050  0.0273 -0.0094
15355PP      PP25459   7.319  10.003  13.057  0.0955 -0.1157 -0.1202
15356PP      PP25460   6.159   2.296   4.517  0.2788  0.1374  0.0113
15357PP      PP25461   1.356   5.943   8.588 -0.1242 -0.4027  0.0590
15358PP      PP25462   9.341   4.212   0.214  0.0351  0.5715 -0.0536
15359PP      PP25463   6.657  15.215   1.416  0.0245  0.5197  0.2042
15360PP      PP25464   2.175  12.023   2.370 -0.0571 -0.1866 -0.2069
15361PP      PP25465   4.116   7.464   0.276  0.1805 -0.0614  0.2714
15362PP      PP25466   9.633  15.082  11.304  0.1110  0.1504 -0.0826
15363PP      PP25467   9.193   3.758   0.422 -0.1951 -0.0104  0.0054
15364PP      PP25468  12.460   1.959  10.483  0.1304 -0.0821 -0.1730
15365PP      PP25469  13.925  14.112  12.964 -0.3005  0.3480 -0.0452
15366PP      PP25470  14.144  15.494  13.071 -0.3540  0.1058  0.2605
15367PP      PP25471  12.029   9.482  11.154  0.0113  0.1513  0.1199
15368PP      PP25472   8.457   6.095   9.754  0.0208 -0.0440 -0.2717
15369PP      PP25473   3.163  10.909  10.062 -0.1211 -0.1329 -0.1728
15370PP      PP25474   6.502  13.573   9.013  0.0435  0.1574  0.0293
15371PP      PP25475   2.742  11.492   2.350 -0.1407  0.2440 -0.0430
15372PP      PP25476   5.702   3.308  13.050  0.0730 -0.0855  0.1948
15373PP      PP25477   7.030  10.890  11.059  0.1487 -0.2439  0.0877
15374PP      PP25478  13.176  13.814  12.957 -0.2528 -0.2928 -0.0533
15375PP      PP25479   8.649  14.168   2.372 -0.0011  0.1681  0.1687
15376PP      PP25480  11.844   7.472   8.040  0.1304 -0.1767  0.1010
15377PP      PP25481   9.966   9.304   4.132 -0.0363  0.3111  0.2541
15378PP      PP25482  15.126   3.915  10.753  0.1230 -0.0600 -0.1973
15379PP      PP25483  13.738   5.700   7.342  0.1024  0.1518 -0.2514
15380PP      PP25484   7.665   8.484   8.747  0.1973 -0.3912  0.3077
15381PP      PP25485   7.724   9.039  13.525 -0.1891 -0.2230  0.2828
15382PP      PP25486   2.522  13.835   9.483 -0.1580  0.2387 -0.0896
15383PP      PP25487   2.276   5.421   2.245  0.3022  0.2529  0.1551
15384PP      PP25488   1.189   9.201  11.244  0.0262 -0.0298  0.2295
15385PP      PP25489   5.897  14.430   0.822 -0.2273  0.1750 -0.0132
15386PP      PP25490   4.607   2.645  12.209 -0.0174  0.0539 -0.5071
15387PP      PP25491   9.905  14.646  13.227  0.0373  0.0974 -0.1210
15388PP      PP25492  10.755   1.526   0.882 -0.2839 -0.1255 -0.3182
15389PP      PP25493   4.342  15.494  11.188  0.3301 -0.2422 -0.0369
15390PP      PP25494   3.119   5.699  11.613 -0.0816  0.2671  0.1352
15391PP      PP25495   2.257  13.567   9.005 -0.0727 -0.1282 -0.0422
15392PP      PP25496  11.918   9.311   3.369  0.0976  0.2233  0.0721
15393PP      PP25497   5.423   2.726   3.833  0.2510 -0.1502  0.0672
15394PP      PP25498   6.357  14.960  12.959  0.1355  0.0431 -0.0414
15395PP      PP25499   7.932   0.452   2.768  0.2743 -0.3934 -0.2030
15396PP      PP25500   6.697   0.014  13.481  0.0089  0.2072 -0.0597
15397PP      PP25501  13.776   9.436   8.935 -0.2153 -0.0547 -0.0504
15398PP      PP25502  10.117  13.940   2.103 -0.2131  0.1215 -0.2917
15399PP      PP25503   1.578   9.880   1.276 -0.3158 -0.1283  0.0801
15400PP      PP25504   1.573   4.628  12.267 -0.0973  0.0840 -0.0768
15401PP      PP25505  14.861   3.084   4.562 -0.0921  0.1282  0.0475
15402PP      PP25506   6.897   0.205  10.338  0.0681  0.4809  0.0941
15403PP      PP25507  13.014   4.369   9.484  0.2363 -0.0186  0.0048
15404PP      PP25508  13.735  13.702   0.842  0.0203  0.3562 -0.0665
15405PP      PP25509  12.720   9.475   9.895  0.0817  0.0682  0.0693
15406PP      PP25510   4.101   4.628   5.248 -0.1231 -0.0019  0.0895
15407PP      PP25511   0.865  15.689  11.396 -0.3869 -0.3546 -0.3167
15408PP      PP25512   0.949   2.064  10.985 -0.1235 -0.0175  0.0576
15409PP      PP25513  12.370   6.594  12.554  0.0388 -0.2517  0.0538
15410PP      PP25514   5.701  10.815   9.458 -0.0131 -0.0298 -0.1833
15411PP      PP25515  11.948   8.312  12.982  0.0784  0.0269 -0.0056
15412PP      PP25516   0.899  10.880  13.469  0.2562 -0.1877 -0.0364
15413PP      PP25517   3.405   1.579  10.697 -0.0930 -0.0996  0.2109
15414PP      PP25518  14.579  11.910   1.067 -0.2104  0.4670  0.2195
15415PP      PP25519   2.256   4.038   2.647  0.1535  0.0326 -0.2757
15416PP      PP25520  14.890   7.168  12.604 -0.0951 -0.0413 -0.1121
15417PP      PP25521   7.758   0.916   2.606 -0.2036  0.1137 -0.1909
15418PP      PP25522  10.174   3.070   9.427 -0.2531 -0.2889  0.0105
15419PP      PP25523  11.546   3.589  11.704  0.1801  0.1480  0.3776
15420PP      PP25524  10.442   5.408   0.069  0.1517  0.0656  0.0332
15421PP      PP25525  15.241   6.118   2.605  0.0452  0.1160 -0.4922
15422PP      PP25526  15.699   5.305  12.719 -0.1463 -0.0553 -0.1027
15423PP      PP25527  13.092  12.377  11.837 -0.2410 -0.2895 -0.1168
15424PP      PP25528   1.381   0.170  10.176 -0.0657  0.0275 -0.0843
15425PP      PP25529   5.690  13.208   4.335 -0.0434  0.1322 -0.1111
15426PP      PP25530   3.765   0.322  11.057 -0.0287  0.0529  0.0117
15427PP      PP25531   1.759  13.122   2.532 -0.0151  0.0951  0.0631
15428PP      PP25532   2.122  15.415  10.824 -0.0810  0.0340  0.0429
15429PP      PP25533  14.717  12.972   0.781 -0.1562 -0.0890 -0.0583
15430PP      PP25534  11.548  12.184   1.286 -0.0168 -0.0804  0.0948
15431PP      PP25535  14.165   0.987  10.418  0.0118 -0.4757  0.1998
15432PP      PP25536   4.934   5.819   3.281  0.3407  0.1469  0.0746
15433PP      PP25537  12.675  13.443   1.419 -0.0790 -0.3339 -0.0089
15434PP      PP25538   8.028  11.834   3.024 -0.1464 -0.1519 -0.1397
15435PP      PP25539  10.068  12.116  11.160  0.2651 -0.1317 -0.0703
15436PP      PP25540   8.776   4.974   0.514 -0.2882  0.1362  0.1371
15437PP      PP25541  12.131  12.479   3.136 -0.0641 -0.1422  0.2218
15438PP      PP25542   8.380  10.729  12.241 -0.0468 -0.1420  0.3055
15439PP      PP25543  12.632  15.240   3.695  0.2069 -0.2334  0.1935
15440PP      PP25544   6.255   4.583  11.358 -0.1535  0.1188  0.0605
15441PP      PP25545   0.390   3.991   4.769  0.1721 -0.1534 -0.1292
15442PP      PP25546   6.467   0.879   1.360 -0.0648 -0.3767  0.0276
15443PP      PP25547   9.606   7.807   0.243 -0.0410  0.4204  0.0694
15444PP      PP25548   8.268   2.493  10.226 -0.0688  0.0166  0.1274
15445PP      PP25549   9.035  11.253   3.539 -0.0137 -0.0814 -0.2045
15446PP      PP25550   9.116  10.026   9.302  0.0773 -0.1035  0.1123
15447PP      PP25551  13.393   0.129  11.205 -0.1491 -0.0017  0.2880
15448PP      PP25552  11.799   6.887   7.489 -0.1881 -0.2802 -0.0567
15449PP      PP25553   1.287   2.031   0.674 -0.0812  0.0964  0.2560
15450PP      PP25554   7.873  13.654  13.304 -0.1816  0.0174 -0.1228
15451PP      PP25555  13.615  10.255  11.708 -0.2102 -0.2596 -0.1572
15452PP      PP25556   8.833  14.819   0.637 -0.0387  0.1794 -0.2914
15453PP      PP25557  14.592   6.878  12.310 -0.0566 -0.4850  0.1589
15454PP      PP25558  15.090   3.183   2.737 -0.2458 -0.1428  0.1773
15455PP      PP25559  12.725   8.836   3.378 -0.0363 -0.0057 -0.1020
15456PP      PP25560   7.665  11.214   2.904  0.0874 -0.1367  0.0330
15457PP      PP25561   5.976  10.187   0.313 -0.2366  0.0830 -0.1507
15458PP      PP25562   0.718   9.075   3.348  0.1958  0.1576 -0.0913
15459PP      PP25563   6.340  10.141   1.602  0.2301 -0.0938 -0.4046
15460PP      PP25564   6.245   3.297   2.193 -0.1692 -0.1985  0.1754
15461PP      PP25565   6.705   1.179   2.704  0.1092  0.0788 -0.2067
15462PP      PP25566   3.571  15.146   2.327  0.2166 -0.0519 -0.2798
15463PP      PP25567   5.848   3.805  13.040 -0.2089 -0.3048  0.1362
15464PP      PP25568   0.220  15.156   2.611  0.1219 -0.0181 -0.0382
15465PP      PP25569   5.558   6.343   1.952 -0.1458 -0.1332 -0.2313
15466PP      PP25570  12.126   6.828   2.200  0.0823 -0.2023  0.0880
15467PP      PP25571   1.834   2.991   4.548 -0.1537 -0.3293 -0.1021
15468PP      PP25572   3.219   3.221   4.326  0.0740 -0.1539 -0.2656
15469PP      PP25573   4.353   0.362   4.244  0.0962  0.3050  0.0405
15470PP      PP25574  10.597  12.172   3.194 -0.0765 -0.0583 -0.1654
15471PP      PP25575   7.587   2.591  12.514 -0.1770 -0.1939 -0.0807
15472PP      PP25576   4.260   7.033   1.890  0.1912 -0.2666 -0.0922
15473PP      PP25577   5.326   7.477   0.878  0.3832 -0.2006  0.1008
15474PP      PP25578  15.411   4.657   3.264  0.0591 -0.0081 -0.2027
15475PP      PP25579   5.131   4.354  12.946 -0.2419  0.0467  0.1850
15476PP      PP25580  14.218   0.070   1.237  0.0958 -0.1411  0.0677
15477PP      PP25581  13.048   2.687  12.183 -0.0748 -0.2835 -0.1859
15478PP      PP25582   5.415  14.301   3.262  0.3309 -0.1088  0.0484
15479PP      PP25583  14.365   4.602   2.948  0.0128  0.1239 -0.4156
15480PP      PP25584  15.741   8.450   2.328  0.1389  0.2965 -0.0407
15481PP      PP25585   7.938  15.428   3.440  0.1446 -0.1260 -0.0943
15482PP      PP25586   0.460   6.288  10.390 -0.1129  0.1860 -0.0044
15483PP      PP25587  12.664   6.890  11.254  0.2535  0.0332 -0.0687
15484PP      PP25588  14.905   4.494   0.580 -0.2826  0.1860  0.2595
15485PP      PP25589   5.654   2.264   3.051  0.2085 -0.3328 -0.0107
15486PP      PP25590   7.325   0.124   3.408  0.1915  0.1355  0.2439
15487PP      PP25591  14.370  14.060  10.466 -0.2503  0.0703 -0.1847
15488PP      PP25592  12.912   7.396  12.152 -0.2183 -0.0681 -0.3190
15489PP      PP25593  13.144  11.166  10.599 -0.1195  0.1068 -0.3577
15490PP      PP25594   9.841  11.488  12.558  0.2033 -0.1263 -0.5392
15491PP      PP25595   7.276  14.799   2.689 -0.0078 -0.1667  0.1436
15492PP      PP25596   4.025   1.858  12.616 -0.3600  0.1482 -0.0279
15493PP      PP25597   6.185  15.784  10.660 -0.0642 -0.0020  0.2715
15494PP      PP25598  14.950  14.180  12.141  0.1780  0.1987  0.4485
15495PP      PP25599   5.428  12.680   9.709  0.0702 -0.0346  0.3656
15496PP      PP25600  15.561  15.722  12.912  0.1664 -0.0266  0.1480
15497PP      PP25601   2.668   8.440   1.989  0.1674 -0.1264  0.0396
15498PP      PP25602   8.071   8.721   9.425 -0.0257 -0.0206  0.0975
15499PP      PP25603  13.291   5.608  11.735 -0.1708 -0.0718  0.2078
15500PP      PP25604   7.301  11.719  12.963  0.1456 -0.0365  0.1366
15501PP      PP25605  10.872  13.115  12.542 -0.0253  0.1217  0.1700
15502PP      PP25606   4.455   1.535  10.821 -0.1621 -0.0491  0.1495
15503PP      PP25607   9.668  15.230  12.343 -0.1801 -0.0367 -0.1211
15504PP      PP25608   5.567   5.472  10.338 -0.1252  0.0440 -0.0615
15505PP      PP25609   2.634   2.630   2.838 -0.2169 -0.0048  0.0708
15506PP      PP25610   5.442   1.583   4.705 -0.0671 -0.0644 -0.2144
15507PP      PP25611  12.683  13.469   3.748  0.1889  0.0033  0.2694
15508PP      PP25612  12.129  15.808   3.917 -0.0103 -0.3498  0.1924
15509PP      PP25613   0.582  15.126   9.093  0.1729  0.1161 -0.0681
15510PP      PP25614  10.788   8.644   3.123 -0.2274 -0.1730 -0.1303
15511PP      PP25615   8.287   9.821  13.223 -0.1562 -0.0802 -0.1383
15512PP      PP25616  14.806   3.820   8.761  0.2121 -0.2990 -0.0000
15513PP      PP25617   4.163   0.316   2.004  0.0742  0.2512  0.0590
15514PP      PP25618   4.657  10.166   1.958 -0.1668 -0.3105  0.0158
15515PP      PP25619   5.169  10.132  10.736  0.2593 -0.1694 -0.0454
15516PP      PP25620  12.980   1.506   1.634  0.1376  0.2726 -0.0756
15517PP      PP25621   0.947   6.306   9.637 -0.0254 -0.2937 -0.2338
15518PP      PP25622   2.555   8.733  11.663 -0.1046 -0.2099 -0.3004
15519PP      PP25623   9.038  10.096   9.919  0.1557  0.0640 -0.4746
15520PP      PP25624  10.542   8.926   3.467  0.1341 -0.0410 -0.0351
15521PP      PP25625   7.067   4.700  12.728 -0.2997 -0.0575 -0.0885
15522PP      PP25626   3.022  11.770   2.046 -0.3379 -0.1090  0.1581
15523PP      PP25627  14.583  12.920   1.330 -0.4434  0.0644 -0.0149
15524PP      PP25628  14.518   5.277   8.463 -0.3404 -0.0317  0.3572
15525PP      PP25629   4.305   2.333   1.030  0.1326 -0.0547 -0.0094
15526PP      PP25630   8.634  11.571  10.445  0.0304 -0.3555 -0.0378
15527PP      PP25631   1.550   1.466   0.847  0.1307  0.4215  0.2349
15528PP      PP25632  15.018  15.482  12.902 -0.0583  0.1212  0.1811
15529PP      PP25633  12.998  11.316  12.599  0.2421  0.2068  0.0376
15530PP      PP25634   2.581   8.663   0.605  0.3943 -0.1059 -0.1826
15531PP      PP25635  11.246   4.150  12.720  0.1355  0.1339  0.3013
15532PP      PP25636   4.848  14.398   9.307  0.2625 -0.2170  0.1734
15533PP      PP25637   0.115  12.141  12.930 -0.2167  0.2166  0.2132
15534PP      PP25638   1.228  12.703  12.101  0.2501 -0.2311  0.2337
15535PP      PP25639  11.103  14.615   2.607  0.0042  0.2583  0.0952
15536PP      PP25640  11.877   3.690   0.799 -0.0461 -0.0786  0.4436
15537PP      PP25641   1.254   8.357   1.886 -0.1067  0.2068  0.1470
15538PP      PP25642   7.532   0.876  13.059 -0.1179 -0.5969 -0.0140
15539PP      PP25643  15.819   9.200  11.616  0.3999  0.0311 -0.4748
15540PP      PP25644   4.283   0.423   3.732  0.2249 -0.3958  0.2922
15541PP      PP25645   0.574   3.926   4.239  0.1916 -0.4396  0.0398
15542PP      PP25646   5.299   1.142   0.186 -0.1262 -0.0423  0.2716
15543PP      PP25647   5.470   5.900   3.357  0.0874  0.0692  0.1564
15544PP      PP25648   3.514   3.967  11.330 -0.3102 -0.1147  0.0976
15545PP      PP25649   8.602  13.871  13.500  0.3559  0.1410 -0.1024
15546PP      PP25650   5.093   9.140   9.010 -0.1198  0.1098  0.2911
15547PP      PP25651  10.908   1.834   3.915  0.1599  0.0713  0.0797
15548PP      PP25652  13.127  14.966   9.677  0.1795  0.0639 -0.1547
15549PP      PP25653   5.893   9.690   2.652  0.0965  0.2495  0.2095
15550PP      PP25654   8.439   4.040  13.377  0.3638  0.1582 -0.2886
15551PP      PP25655   7.930   8.304   8.298  0.1078 -0.1021 -0.5129
15552PP      PP25656   6.825   2.249   9.355  0.0162  0.2622 -0.1527
15553PP      PP25657  14.684   3.440   2.502  0.0409 -0.1557 -0.0647
15554PP      PP25658  10.164   2.630  12.635  0.4486  0.0629 -0.0074
15555PP      PP25659   0.725   1.614   1.779 -0.0938  0.1310 -0.2568
15556PP      PP25660   0.308   2.969   9.251 -0.3299  0.0298 -0.1437
15557PP      PP25661   0.811   2.051  12.619  0.0454 -0.1291 -0.2019
15558PP      PP25662   5.340  11.251   9.479 -0.0737 -0.0267 -0.2204
15559PP      PP25663  11.835   4.083  12.049 -0.2583  0.1878  0.0833
15560PP      PP25664   2.195  13.473   3.809  0.0008 -0.2519 -0.3500
15561PP      PP25665   3.378  12.796  11.639  0.0647 -0.1024  0.0880
15562PP      PP25666   0.143   4.273   2.977 -0.2729 -0.0613 -0.1612
15563PP      PP25667  15.292   9.128  11.793  0.3070 -0.0447 -0.1894
15564PP      PP25668   3.539   8.207   1.144  0.0182  0.1225 -0.2427
15565PP      PP25669   8.072  13.175   0.272  0.0334 -0.3595  0.1431
15566PP      PP25670   5.839   5.935  12.269 -0.0458  0.2414 -0.1565
15567PP      PP25671   8.609  11.233   2.698 -0.0664  0.1101 -0.0307
15568PP      PP25672   8.041   9.211   2.620 -0.0310  0.2750  0.1547
15569PP      PP25673  15.500   7.737   3.221 -0.3028  0.2190  0.1085
15570PP      PP25674   2.260   8.418  11.032  0.3899 -0.1289  0.2361
15571PP      PP25675   6.596   3.173   1.857  0.1282 -0.1127  0.2702
15572PP      PP25676  14.531   4.489   1.405  0.0395 -0.1873  0.1900
15573PP      PP25677  10.580  13.605   0.743  0.4727  0.5011 -0.1189
15574PP      PP25678   5.383   3.071  10.109 -0.0247  0.2147 -0.0202
15575PP      PP25679  11.875  14.626   2.933  0.5367 -0.3649 -0.0817
15576PP      PP25680   7.353  11.855  10.117  0.1325  0.0188 -0.0853
15577PP      PP25681  14.670   1.404   3.234  0.0581  0.3825 -0.0556
15578PP      PP25682   5.793   6.358   8.501 -0.1492  0.0321  0.0483
15579PP      PP25683  12.145  11.847   0.979  0.2398  0.3886 -0.1179
15580PP      PP25684   2.192  12.495   4.038 -0.1006 -0.2084 -0.0331
15581PP      PP25685   3.194  11.300  11.374  0.0012  0.2346  0.2096
15582PP      PP25686  11.965   6.015   0.784  0.1075 -0.2645  0.0188
15583PP      PP25687   5.272  12.183   4.472  0.0661 -0.0787 -0.2824
15584PP      PP25688  13.303  14.518  12.781  0.0139  0.0836 -0.3373
15585PP      PP25689   8.517  15.291  12.349 -0.3327  0.0359  0.0497
15586PP      PP25690   2.214   4.906   3.021 -0.2437  0.1675  0.1966
15587PP      PP25691   7.389  15.525  13.224  0.2608  0.1600 -0.1464
15588PP      PP25692  12.648   0.521   3.216  0.0045 -0.5993  0.0304
15589PP      PP25693  11.688  12.286   3.549  0.0332  0.1038  0.0572
15590PP      PP25694  11.447   9.385  11.143 -0.4770  0.0266 -0.0602
15591PP      PP25695  10.705   1.787   9.462 -0.1656 -0.0859  0.2665
15592PP      PP25696  14.037   3.870  10.837 -0.0225 -0.0225  0.1610
15593PP      PP25697  14.625   1.459  11.087 -0.3463  0.1945  0.0684
15594PP      PP25698   3.254   6.730  10.072 -0.1219  0.1362 -0.1330
15595PP      PP25699  13.057   1.243   2.045 -0.2614 -0.1135  0.1272
15596PP      PP25700  10.684   8.374  11.311  0.0202 -0.0848  0.0115
15597PP      PP25701   1.787   8.272   3.009  0.1288  0.2530 -0.0355
15598PP      PP25702  13.238   5.549   7.496  0.2850 -0.2135 -0.1112
15599PP      PP25703   1.081   3.407  12.564 -0.0616 -0.2406  0.0321
15600PP      PP25704   5.047  15.716  10.573  0.0720 -0.0876  0.0479
15601PP      PP25705   7.413   9.437   9.517  0.1788  0.3076  0.2890
15602PP      PP25706   2.307  10.033  10.422  0.0954 -0.1089 -0.1872
15603PP      PP25707   2.851   3.375  13.457  0.0298  0.1870  0.1178
15604PP      PP25708  12.141   3.039   9.830 -0.1032  0.1990  0.2255
15605PP      PP25709   9.092   8.312   1.517  0.1993 -0.0284  0.0583
15606PP      PP25710   5.346   0.739   3.151 -0.0205 -0.1805  0.1426
15607PP      PP25711  13.475  15.587   0.759 -0.4829  0.1392  0.2036
15608PP      PP25712   0.018   1.060   9.059 -0.3171 -0.1895 -0.0813
15609PP      PP25713   5.877   6.489   2.424  0.2514 -0.0303 -0.1544
15610PP      PP25714   9.042  12.533  12.442 -0.0393 -0.1885  0.0348
15611PP      PP25715  14.664   2.618   0.112  0.1046  0.1315 -0.3339
15612PP      PP25716  12.641  11.208   3.717  0.1624  0.1545 -0.0533
15613PP      PP25717  15.137   5.649  10.152  0.0247 -0.0040 -0.0102
15614PP      PP25718   4.656   6.220   2.956 -0.1855  0.1243 -0.2522
15615PP      PP25719   5.342   2.088   9.965  0.2158  0.3776  0.0753
15616PP      PP25720   4.407   9.723  12.744 -0.3750  0.4501 -0.1330
15617PP      PP25721  11.849   6.109  10.217  0.1490 -0.0536  0.0079
15618PP      PP25722  13.419   9.456   3.006  0.1629 -0.3821  0.2225
15619PP      PP25723   9.965  11.784   4.697  0.1286  0.1294 -0.0262
15620PP      PP25724  10.439   2.311  11.037  0.2346 -0.0654 -0.0004
15621PP      PP25725   5.534  10.828   0.617 -0.1908 -0.0602  0.1600
15622PP      PP25726   6.136   1.033  12.008  0.0817 -0.2513  0.0733
15623PP      PP25727  10.870   1.259   1.636 -0.4192  0.2356  0.3640
15624PP      PP25728  10.285   9.313   3.190 -0.2004  0.2133 -0.0295
15625PP      PP25729   9.135   7.297   1.409 -0.1687 -0.2774  0.1238
15626PP      PP25730   6.004   4.259   4.183 -0.4336  0.1049 -0.3188
15627PP      PP25731   4.340   1.202  11.212  0.1863 -0.0957 -0.1033
15628PP      PP25732   0.315   3.805   2.654 -0.0814 -0.1986  0.2801
15629PP      PP25733  10.141  13.263   0.831 -0.0523 -0.6607 -0.0236
15630PP      PP25734  15.780  13.207  11.741  0.0251  0.1257 -0.0525
15631PP      PP25735   9.844   9.874   3.845 -0.0780  0.1715 -0.0443
15632PP      PP25736   5.340   5.839   9.991 -0.1718 -0.4134 -0.1364
15633PP      PP25737  12.369   4.191  12.007 -0.0691  0.1257 -0.0394
15634PP      PP25738   8.465   1.025   1.677  0.1131  0.1272  0.1259
15635PP      PP25739   5.792   3.457   8.102 -0.0439 -0.4201 -0.1273
15636PP      PP25740  14.414   7.012   1.934  0.2907 -0.0514 -0.3582
15637PP      PP25741   8.360  15.122   3.326  0.1836  0.2405  0.2037
15638PP      PP25742   6.942   0.644   1.101  0.0106  0.0918  0.1064
15639PP      PP25743  14.721  14.381   9.751 -0.0692 -0.1055 -0.3411
15640PP      PP25744   0.618  12.604  12.800 -0.0723 -0.0009  0.0604
15641PP      PP25745   5.287   4.771   0.252  0.1381  0.1890  0.0899
15642PP      PP25746  15.449   2.223   3.564 -0.4177 -0.0348 -0.0112
15643PP      PP25747   5.720   8.854   1.875  0.1824 -0.1762 -0.2476
15644PP      PP25748   9.790   1.410  10.740 -0.1560 -0.3589  0.0960
15645PP      PP25749   0.164   8.353   1.965 -0.1831 -0.1332  0.0660
15646PP      PP25750  11.074  10.052   1.265  0.0659 -0.1226  0.0612
15647PP      PP25751  15.797   1.881  10.273 -0.0249  0.2245 -0.2846
15648PP      PP25752   6.384  12.824   2.623 -0.2191  0.1057 -0.3841
15649PP      PP25753   3.062   5.013   4.234  0.0524  0.0535 -0.1697
15650PP      PP25754  13.196   9.296  10.583  0.1705  0.0924  0.0007
15651PP      PP25755   4.988   4.877   1.631  0.1577  0.1401 -0.0245
15652PP      PP25756   2.093   2.821  11.459  0.1459  0.0386 -0.2911
15653PP      PP25757   7.057   1.092   2.298 -0.4050  0.0014  0.0436
15654PP      PP25758  14.879  13.718   0.596 -0.1448  0.1987  0.1277
15655PP      PP25759  15.124  15.664  12.105  0.3167  0.0403 -0.2411
15656PP      PP25760   2.141   0.711   2.811  0.0362 -0.0086 -0.1682
15657PP      PP25761   7.423   6.042   8.717 -0.1064 -0.3140  0.0613
15658PP      PP25762  11.919  15.110   2.467  0.1262  0.2971 -0.1308
15659PP      PP25763  12.297   3.961  13.060  0.0825  0.0811 -0.1565
15660PP      PP25764   7.614   3.328   8.024  0.1657  0.0554  0.0159
15661PP      PP25765   4.367   2.309  10.928  0.3329 -0.0628  0.3953
15662PP      PP25766   6.918  11.867  12.498 -0.0003  0.0459  0.0995
15663PP      PP25767   1.021  12.104   2.120  0.1420  0.3822 -0.1038
15664PP      PP25768   2.023  10.161  12.296 -0.1730  0.2335  0.1276
15665PP      PP25769   8.362  15.536   1.479 -0.2540  0.0376 -0.3836
15666PP      PP25770   1.711   5.462   1.793 -0.0187 -0.0521  0.2342
15667PP      PP25771  10.385   2.708   2.969  0.0621  0.1982  0.1048
15668PP      PP25772   9.839   7.253   1.179  0.0905  0.1508 -0.0877
15669PP      PP25773   5.581   2.740   2.881  0.0660  0.1003 -0.0481
15670PP      PP25774   3.804  14.502  11.495 -0.3310  0.3622  0.1491
15671PP      PP25775   0.403  11.060  10.084 -0.0686 -0.2837 -0.0755
15672PP      PP25776   9.982   4.895   9.218 -0.0578 -0.0241 -0.1841
15673PP      PP25777   4.137   0.559  12.565  0.4361  0.2783  0.1768
15674PP      PP25778   3.384   4.080  10.631  0.6355 -0.2588  0.2829
15675PP      PP25779  14.217  13.231   1.611 -0.1825 -0.0470  0.0772
15676PP      PP25780  14.569  11.960  13.536  0.1142 -0.0813  0.2664
15677PP      PP25781  13.051  15.862  12.043  0.1818 -0.1239 -0.0979
15678PP      PP25782  13.108   6.035   0.037 -0.1957 -0.2095  0.0146
15679PP      PP25783   7.583   6.841   8.912 -0.0547  0.3096 -0.0016
15680PP      PP25784   2.035  15.049   3.177  0.2724 -0.0848 -0.3881
15681PP      PP25785   8.551  12.218  11.454 -0.2475  0.0775  0.2249
15682PP      PP25786   4.670   0.283  11.351 -0.0856 -0.3203 -0.0598
15683PP      PP25787  11.970   1.794   2.038  0.3212  0.3241  0.0095
15684PP      PP25788   7.194   0.496   0.669  0.1945  0.2350 -0.0826
15685PP      PP25789   1.652   1.728   3.254 -0.0885 -0.2053 -0.4873
15686PP      PP25790  10.352  12.147  12.914 -0.0926 -0.0623 -0.1601
15687PP      PP25791  14.852  12.879  11.099  0.0717 -0.0297  0.0669
15688PP      PP25792  15.702   2.138  12.174  0.0151 -0.1252 -0.0323
15689PP      PP25793   1.957   5.878  10.666  0.1327 -0.0472  0.4474
15690PP      PP25794   0.607  13.675   2.899 -0.1372  0.4192 -0.0377
15691PP      PP25795   5.218  11.999   1.270  0.2765  0.1603  0.0166
15692PP      PP25796  13.939  14.994  10.368 -0.1657  0.3104 -0.1307
15693PP      PP25797  11.996   5.264  12.946  0.0626  0.3459  0.0299
15694PP      PP25798  10.546   1.690   4.502 -0.1203 -0.1808  0.0529
15695PP      PP25799   8.383  14.718   0.900  0.0010  0.3685 -0.0812
15696PP      PP25800   2.316   1.791  10.460  0.1183 -0.0677  0.0434
15697PP      PP25801  12.115   2.641  10.222  0.0539 -0.0731 -0.1640
15698PP      PP25802   8.161  14.158  10.210 -0.0655  0.2010  0.1627
15699PP      PP25803  11.829   3.263  10.125  0.5032 -0.1272  0.1162
15700PP      PP25804  14.225   4.869   1.099 -0.0179  0.2901  0.1852
15701PP      PP25805  13.261   9.872  13.442 -0.2321  0.0732 -0.2002
15702PP      PP25806  15.712   5.681   2.047  0.0344 -0.2514 -0.1612
15703PP      PP25807  12.587   1.958  11.404  0.0567 -0.3005 -0.2404
15704PP      PP25808   6.247   4.387  10.924  0.0322 -0.3481 -0.1225
15705PP      PP25809  10.698   4.122   1.588  0.3654  0.0728  0.2251
15706PP      PP25810   1.837   0.063   1.647 -0.2076  0.5703 -0.1483
15707PP      PP25811  11.808  11.440  12.973  0.2364 -0.0327 -0.2838
15708PP      PP25812   9.566   1.532  11.959  0.2626  0.2281 -0.5178
15709PP      PP25813   0.888   1.459   9.118 -0.2241  0.1995  0.3072
15710PP      PP25814   1.977   1.653   1.063  0.1578 -0.1144  0.1030
15711PP      PP25815   9.460   4.709   9.125  0.0242 -0.1915 -0.0047
15712PP      PP25816   5.013   2.879   1.451  0.2181 -0.1548 -0.2441
15713PP      PP25817  10.288  11.367  12.218 -0.0823 -0.1834  0.4320
15714PP      PP25818  14.866   7.553   0.646 -0.0802  0.2235 -0.1131
15715PP      PP25819   4.242  13.069  11.445 -0.0953  0.0623 -0.2657
15716PP      PP25820   6.034   7.415   4.044  0.0352  0.2328 -0.0666
15717PP      PP25821  12.042  14.316  12.075 -0.2449 -0.1248  0.1277
15718PP      PP25822   3.876   8.172   9.332  0.1790  0.4736  0.1221
15719PP      PP25823  11.032   7.593   7.634 -0.2710  0.2077  0.0893
15720PP      PP25824  12.067   1.074   1.129 -0.0365  0.0414 -0.0312
15721PP      PP25825  10.946   6.638  12.598  0.1087 -0.1920  0.0168
15722PP      PP25826   6.241  10.514  12.450  0.0810  0.1147 -0.1361
15723PP      PP25827   3.137   1.764  13.430 -0.0508  0.0649 -0.2593
15724PP      PP25828  10.956   3.691  10.215 -0.0396  0.1532 -0.0999
15725PP      PP25829  15.490  10.161   3.080 -0.0567  0.1709  0.1376
15726PP      PP25830  15.809   1.845  12.554 -0.1096  0.2910 -0.0053
15727PP      PP25831   5.569   9.535   4.208  0.1427  0.0171 -0.3641
15728PP      PP25832   1.689   8.212  11.844  0.4662  0.2254  0.0630
15729PP      PP25833  11.246  12.977  11.895  0.1694  0.1215  0.2403
15730PP      PP25834  13.022  14.042   2.725  0.1424 -0.1202  0.0970
15731PP      PP25835  12.671   8.455   9.733 -0.0208  0.1624  0.3233
15732PP      PP25836   2.855  12.235   9.058  0.1724 -0.1572  0.1962
15733PP      PP25837  10.828   9.306   0.490 -0.1889 -0.2714 -0.3839
15734PP      PP25838   8.269   4.249   8.557  0.2958 -0.2111 -0.0335
15735PP      PP25839  15.812   1.409   0.118  0.0660 -0.2776 -0.0631
15736PP      PP25840   7.875   2.658  12.157 -0.2593 -0.1603  0.1429
15737PP      PP25841  12.189  10.834  12.184 -0.0248 -0.2142  0.0478
15738PP      PP25842  14.679  12.212   0.544  0.1934 -0.2476  0.0079
15739PP      PP25843  13.137  15.619   2.265  0.2188 -0.0643  0.3513
15740PP      PP25844   5.761   0.193  11.536 -0.2899 -0.0292  0.1225
15741PP      PP25845   5.506  13.892   2.330  0.0133  0.1017 -0.0967
15742PP      PP25846   0.007  14.694   2.467  0.1112  0.1281  0.1198
15743PP      PP25847   1.384   1.072   3.049  0.0213 -0.1333  0.1115
15744PP      PP25848   5.581   8.573   9.538 -0.0707 -0.3289  0.0830
15745PP      PP25849   3.898   9.188   0.272  0.0568 -0.1123  0.1451
15746PP      PP25850   1.235  11.734   2.376 -0.0907  0.0749  0.0960
15747PP      PP25851   4.970   3.213   4.446  0.1479 -0.0214 -0.2154
15748PP      PP25852  15.339   1.578  12.893 -0.0425  0.1566  0.2350
15749PP      PP25853   3.665  11.876   1.239 -0.1390  0.3567 -0.0241
15750PP      PP25854   1.072   5.641   4.483  0.1528  0.1079 -0.2467
15751PP      PP25855   2.970   3.222  10.758 -0.3361  0.0451  0.1338
15752PP      PP25856  10.348  14.790   9.711 -0.0682 -0.0205  0.0318
15753PP      PP25857  13.011   1.818  10.582  0.1904 -0.4029 -0.3991
15754PP      PP25858   2.059  11.646  12.882  0.1220 -0.0025  0.1672
15755PP      PP25859   7.003   6.933   0.085 -0.0912  0.2304  0.0563
15756PP      PP25860  13.582   5.961   0.716 -0.2107  0.2066  0.0302
15757PP      PP25861  12.932  11.154   8.863  0.2061  0.0580 -0.1155
15758PP      PP25862   9.346  10.424  10.252 -0.1829  0.1093  0.0630
15759PP      PP25863   0.263   7.399  10.193  0.0983  0.1878 -0.0434
15760PP      PP25864  10.767   1.791  11.294 -0.1515  0.2316  0.1821
15761PP      PP25865  11.170  11.487   1.654  0.0520  0.1450  0.1793
15762PP      PP25866  10.218   4.490   9.513  0.0580  0.0111  0.0567
15763PP      PP25867   6.736   9.027   0.473 -0.1170 -0.0449  0.1776
15764PP      PP25868   1.109   0.092  12.988  0.0578  0.0165 -0.2595
15765PP      PP25869   0.203   3.527   4.480  0.1087 -0.1363  0.2062
15766PP      PP25870  11.269   1.380  10.650  0.2587  0.1265 -0.1800
15767PP      PP25871   2.326   9.382   4.101  0.0903 -0.1187  0.0070
15768PP      PP25872   9.770  14.310   4.356  0.0250  0.2613 -0.0575
15769PP      PP25873   9.450   8.619   0.620 -0.2851 -0.0107 -0.0693
15770PP      PP25874   1.617  11.913  11.963  0.0927  0.1624  0.0113
15771PP      PP25875   8.906   8.008  11.098  0.0248  0.0102  0.3944
15772PP      PP25876  14.823   7.740  11.245 -0.2931  0.1613 -0.0174
15773PP      PP25877  13.667  10.370   2.527 -0.0563  0.0903  0.0566
15774PP      PP25878  11.474   2.696  10.040 -0.0371 -0.0332  0.0506
15775PP      PP25879   6.099   2.556   9.919 -0.2345 -0.2074  0.4121
15776PP      PP25880  13.443   8.113   2.320  0.0615 -0.2066 -0.0465
15777PP      PP25881   5.007   6.413   9.220  0.1837 -0.0282 -0.1070
15778PP      PP25882   9.463   3.550  11.833 -0.1215 -0.0932  0.0839
15779PP      PP25883   3.727  13.276  13.435  0.1999  0.0508  0.3762
15780PP      PP25884   0.217  15.632  11.370 -0.1714  0.2305 -0.2369
15781PP      PP25885  12.723   6.533  10.872  0.0480 -0.1281  0.0517
15782PP      PP25886   0.761   1.181   0.683  0.2213  0.1247 -0.1825
15783PP      PP25887   5.563   6.829  10.993 -0.2069 -0.0915 -0.0634
15784PP      PP25888  13.888   8.014  13.184 -0.1730 -0.0157  0.0095
15785PP      PP25889   1.499  15.309   8.974 -0.0370 -0.0896 -0.0335
15786PP      PP25890  14.633   6.484  10.759 -0.1181  0.0133 -0.1295
15787PP      PP25891   8.992   5.872   1.421 -0.1149 -0.2024 -0.3188
15788PP      PP25892   6.104  13.334   9.409 -0.0354 -0.2734  0.0174
15789PP      PP25893   5.019   1.603   2.968 -0.0183 -0.3471  0.0739
15790PP      PP25894   4.312   2.833  13.195 -0.1009 -0.0885  0.0666
15791PP      PP25895   4.748  15.030   2.355 -0.1193 -0.2815  0.3696
15792PP      PP25896  13.228   2.976   0.096 -0.3181  0.1741  0.0057
15793PP      PP25897  10.645  14.313   3.126 -0.0910  0.0344  0.2987
15794PP      PP25898   8.013   7.488  11.428 -0.0959  0.0566  0.1936
15795PP      PP25899  13.077   0.193   3.964 -0.2153 -0.1158  0.1470
15796PP      PP25900   7.921   4.455  12.608 -0.1951  0.3165 -0.0144
15797PP      PP25901   1.506   1.296  11.743  0.5707 -0.0962  0.0339
15798PP      PP25902  12.381   2.995   4.169 -0.3663  0.2561 -0.0657
15799PP      PP25903   7.784   1.217   0.948 -0.3073  0.0028  0.1171
15800PP      PP25904  12.078   5.724   9.866 -0.0355  0.1778  0.0746
15801PP      PP25905   7.245   8.071  11.935  0.0442 -0.3215  0.1549
15802PP      PP25906  15.201   0.624   2.230 -0.3342  0.1401  0.3079
15803PP      PP25907   4.293   3.439  12.987 -0.2980 -0.0970  0.0236
15804PP      PP25908   9.691  15.434  11.680  0.0836  0.1220  0.0350
15805PP      PP25909   5.998   1.428   2.849  0.1307  0.0287  0.1957
15806PP      PP25910   6.684   8.281  11.031  0.4272 -0.2190 -0.0453
15807PP      PP25911  13.895  13.223  11.886  0.3325  0.2268  0.1293
15808PP      PP25912   2.596  12.787   1.979  0.1446  0.3528 -0.2286
15809PP      PP25913  13.924   0.042  10.405  0.1620  0.2162 -0.1129
15810PP      PP25914   9.530   5.857   2.426  0.1024 -0.1233 -0.3185
15811PP      PP25915  13.297   8.024   9.093 -0.1136 -0.2344  0.3258
15812PP      PP25916   6.950   0.287   2.873 -0.1526  0.0885  0.1451
15813PP      PP25917  13.448   1.681   3.959 -0.1071  0.2496 -0.1819
15814PP      PP25918   6.342   5.545   0.626 -0.3707  0.2964  0.2295
15815PP      PP25919   4.057   3.416   1.597  0.1083 -0.0989  0.2398
15816PP      PP25920  13.263  15.420   1.797 -0.2459 -0.2211  0.0271
15817PP      PP25921   8.884   3.534  12.380 -0.2072 -0.2008  0.3281
15818PP      PP25922  10.752   8.195   2.814 -0.1520  0.1811 -0.0517
15819PP      PP25923   9.244   3.001  11.821  0.0537 -0.0819  0.1923
15820PP      PP25924   8.779  15.393  10.245  0.3477 -0.1663 -0.1397
15821PP      PP25925   2.537  12.456  10.071  0.2456 -0.3130 -0.1148
15822PP      PP25926   0.103   2.413   1.949 -0.3042  0.0652 -0.0010
15823PP      PP25927  12.235   0.735   0.806 -0.0463  0.0791 -0.1202
15824PP      PP25928   3.613   5.063   9.156 -0.2348 -0.1416 -0.0070
15825PP      PP25929   3.775   6.274   3.717 -0.1698  0.0798  0.1387
15826PP      PP25930  10.442   9.689   9.222  0.0384 -0.0336  0.3726
15827PP      PP25931   7.221  15.646   1.937 -0.1606 -0.1573  0.0141
15828PP      PP25932  10.185   0.187  11.083 -0.0057 -0.0677  0.3676
15829PP      PP25933   7.044   4.347   3.922 -0.1005 -0.0151 -0.1585
15830PP      PP25934   2.348   3.735   3.703 -0.1730 -0.0177 -0.1508
15831PP      PP25935   3.834  12.336  10.660 -0.1562  0.0858  0.0187
15832PP      PP25936   6.165  15.089  11.985 -0.0486  0.0836 -0.1089
15833PP      PP25937  15.883  12.393  12.491  0.1922 -0.2231 -0.1313
15834PP      PP25938   3.151   3.014   1.590  0.4929  0.0530 -0.1603
15835PP      PP25939  15.656  11.348   4.016  0.0062 -0.0441 -0.1049
15836PP      PP25940   7.077   3.293   1.164  0.1596 -0.0093 -0.1462
15837PP      PP25941  14.767  15.783   1.051  0.1792  0.1529 -0.1141
15838PP      PP25942   1.860   5.173   2.817 -0.1610  0.3450  0.1557
15839PP      PP25943   6.908  15.260   1.908  0.0432 -0.0188 -0.0395
15840PP      PP25944  11.119   6.440   0.519  0.2768 -0.0740  0.0561
15841PP      PP25945  12.727   9.176  11.626 -0.1417  0.3129  0.0335
15842PP      PP25946   7.841  12.456   3.657  0.1427  0.0744  0.1838
15843PP      PP25947   8.107  15.634  10.972 -0.0436 -0.1196 -0.2764
15844PP      PP25948   7.184   0.291  11.758 -0.2743 -0.0484  0.1618
15845PP      PP25949   0.907   9.680   1.519 -0.2051  0.2304  0.1105
15846PP      PP25950  13.484   5.166   7.970 -0.0816 -0.2113 -0.2380
15847PP      PP25951   8.424  12.734   3.796  0.0125 -0.0145  0.1376
15848PP      PP25952   1.629  14.524   0.243 -0.2789  0.0309 -0.1817
15849PP      PP25953   5.914  13.216  12.442  0.1062 -0.2300  0.1943
15850PP      PP25954   1.169  14.844   4.606  0.0919 -0.2046 -0.2730
15851PP      PP25955  13.512   9.907  12.295 -0.0559 -0.2007 -0.0375
15852PP      PP25956  13.432   2.308  12.329 -0.2041 -0.2611 -0.1179
15853PP      PP25957   4.388  15.092   0.480  0.1477  0.1697  0.0877
15854PP      PP25958   5.775   9.359   0.527 -0.1268 -0.2523  0.0699
15855PP      PP25959  10.072  14.435   2.195 -0.2117  0.1539  0.2710
15856PP      PP25960  12.764  11.785   4.739 -0.0746 -0.0823  0.2211
15857PP      PP25961  14.749   4.899  12.856  0.0854  0.0557 -0.0638
15858PP      PP25962  11.655   8.516  10.163 -0.1758 -0.2542  0.0334
15859PP      PP25963   8.990   3.922   2.791  0.0675  0.2537  0.0528
15860PP      PP25964   8.101   2.021  10.401 -0.1628 -0.0329 -0.0398
15861PP      PP25965  15.314  15.539   9.442  0.0657  0.1863  0.0776
15862PP      PP25966   0.426   8.301   9.003 -0.0815  0.3300  0.3374
15863PP      PP25967  10.926   4.212   1.151 -0.2571  0.3095 -0.1719
15864PP      PP25968  11.535   0.490   2.211  0.1174 -0.2708 -0.1778
15865PP      PP25969  12.684   1.040   9.207 -0.0903  0.0416 -0.1772
15866PP      PP25970  11.755   4.427   9.626  0.2427  0.0460 -0.1880
15867PP      PP25971  14.701   2.876   1.345 -0.1317 -0.0539  0.0176
15868PP      PP25972   2.721   9.512  11.744  0.0127  0.0693  0.0696
15869PP      PP25973  10.562  15.460   2.605  0.3688  0.1295 -0.2112
15870PP      PP25974   3.425   8.193   9.048 -0.3471  0.0146 -0.4109
15871PP      PP25975   1.014   8.263  13.072  0.0169 -0.0302  0.0802
15872PP      PP25976  11.173   2.714   4.782  0.0063 -0.5165 -0.0992
15873PP      PP25977   2.379  11.242  11.794 -0.1103 -0.1891 -0.1164
15874PP      PP25978   0.187  15.168  11.644  0.0898 -0.0658  0.1815
15875PP      PP25979   2.928   6.728   4.772 -0.0604  0.0503  0.0613
15876PP      PP25980   6.145  14.573  11.952 -0.0865  0.2553 -0.3948
15877PP      PP25981   3.786   3.281  12.409  0.1354 -0.0286  0.0936
15878PP      PP25982  14.773   5.586   9.724  0.1287  0.1171  0.1106
15879PP      PP25983  10.002   3.542   9.544 -0.0650  0.0753  0.2396
15880PP      PP25984  10.200   6.063   8.854  0.1534  0.0223 -0.0875
15881PP      PP25985   0.268  14.679   3.001  0.0650 -0.1982  0.0461
15882PP      PP25986   1.428   4.966   0.463  0.0623  0.0114  0.0710
15883PP      PP25987   6.129   4.258  12.342  0.4443  0.2495 -0.3289
15884PP      PP25988  14.445  14.995   9.126  0.0193 -0.1480  0.5217
15885PP      PP25989   9.188   7.667  10.896  0.2351  0.2522  0.0023
15886PP      PP25990   4.500  15.045   4.273 -0.0170 -0.0148 -0.1600
15887PP      PP25991   8.548   1.868   0.067  0.1117 -0.0990  0.3280
15888PP      PP25992   9.439   4.262   2.839 -0.0226  0.1606 -0.0093
15889PP      PP25993  10.833   1.202   4.565  0.0005  0.2223  0.2592
15890PP      PP25994   3.267   2.595  12.532 -0.1433  0.4246  0.0712
15891PP      PP25995   7.715   6.757   0.809 -0.1047 -0.0357 -0.0669
15892PP      PP25996  10.391  11.896   4.528 -0.1179  0.0589 -0.0078
15893PP      PP25997   9.549  12.291  13.068  0.2885  0.1542 -0.0069
15894PP      PP25998  10.141  10.762  10.939 -0.3642  0.1190 -0.3294
15895PP      PP25999   0.049   8.139   0.733 -0.1295 -0.0248  0.0068
15896PP      PP26000   7.197   9.971   2.377 -0.0890 -0.0948 -0.1111
15897PP      PP26001  14.740   5.451   3.366 -0.0733 -0.0786  0.2843
15898PP      PP26002   4.697   7.762   1.863 -0.2293 -0.0207 -0.2365
15899PP      PP26003  12.942  12.853   4.725 -0.1372  0.0573 -0.1187
15900PP      PP26004   8.825  12.085   9.416 -0.0463  0.0369 -0.2456
15901PP      PP26005   3.164   5.112  11.787 -0.0463 -0.1419 -0.0895
15902PP      PP26006  12.146  10.570   0.227  0.0252  0.1443 -0.0700
15903PP      PP26007  15.604   9.290  12.298 -0.2029  0.1171  0.2540
15904PP      PP26008   4.421  11.669   9.235  0.0071 -0.1885  0.1063
15905PP      PP26009   0.566   1.796   4.400  0.3583 -0.0253  0.1543
15906PP      PP26010  12.288   7.264  11.918  0.0281  0.0552 -0.0784
15907PP      PP26011   7.970  12.732   4.638  0.3737  0.1328  0.0384
15908PP      PP26012   9.229   9.765  12.699  0.2857 -0.2636 -0.1391
15909PP      PP26013   6.936   2.030   4.988 -0.1944 -0.3167 -0.1724
15910PP      PP26014   9.033   1.416  12.804  0.1810 -0.2221 -0.2134
15911PP      PP26015  11.245   8.542   9.143  0.1205  0.0221 -0.0891
15912PP      PP26016   4.073   1.680  12.080  0.1810  0.0395  0.0399
15913PP      PP26017   8.923   6.725  10.851  0.0503  0.1166 -0.1749
15914PP      PP26018   7.502   4.956  10.203 -0.4224  0.1618 -0.2225
15915PP      PP26019   0.790   7.275   9.279 -0.0059  0.0205  0.1576
15916PP      PP26020   0.283   6.483  11.236  0.1208  0.0596 -0.0236
15917PP      PP26021   3.737   5.870   9.684 -0.1076 -0.0785 -0.3408
15918PP      PP26022   1.404   6.811   3.781  0.0621  0.2814  0.0791
15919PP      PP26023  13.843  13.877   4.148 -0.0609  0.0028  0.0357
15920PP      PP26024   0.099   4.398   3.970 -0.5732  0.1902  0.1669
15921PP      PP26025  11.136  11.244   3.498 -0.4371 -0.1779  0.1512
15922PP      PP26026   0.585   9.221   8.743 -0.0533 -0.1182  0.1393
15923PP      PP26027   2.156   8.942   1.877 -0.0858  0.0344 -0.1021
15924PP      PP26028   0.109  13.464   3.825  0.2369  0.1728  0.0385
15925PP      PP26029   8.823   9.402   1.061 -0.1667 -0.1250  0.1144
15926PP      PP26030   2.513   4.813   9.090  0.4310 -0.0892 -0.1568
15927PP      PP26031   0.162   3.322  10.132  0.0206  0.0307 -0.2615
15928PP      PP26032   5.096   9.371  13.249  0.0213 -0.1250 -0.1534
15929PP      PP26033   2.769  14.906  11.827 -0.1877  0.1259 -0.0188
15930PP      PP26034   3.225  12.435  12.294  0.5589  0.3827  0.2671
15931PP      PP26035  13.980  14.004  11.295  0.1446 -0.0446  0.0177
15932PP      PP26036  13.160   8.462   0.961  0.0065  0.0290 -0.2037
15933PP      PP26037   6.535   3.836  11.537  0.0468 -0.3765 -0.2106
15934PP      PP26038   7.389  15.108   1.024 -0.0039  0.1590  0.1825
15935PP      PP26039   2.872  15.341  12.028 -0.2850  0.1594 -0.0914
15936PP      PP26040  13.094  12.770   9.562 -0.0722  0.1614 -0.1061
15937PP      PP26041  14.489  13.977   0.558 -0.0202  0.1011  0.0463
15938PP      PP26042   4.770   4.790   0.166 -0.0263 -0.3825 -0.0255
15939PP      PP26043  11.658   6.742   2.117  0.0547  0.1417  0.2579
15940PP      PP26044   2.796   0.386   2.158 -0.2496  0.2370 -0.2342
15941PP      PP26045  12.759   7.083   0.802  0.0324  0.0374  0.3401
15942PP      PP26046  15.162   7.300   3.279  0.3042  0.2363  0.1344
15943PP      PP26047  10.456   5.637   0.645 -0.1811 -0.0010 -0.2058
15944PP      PP26048   2.275  11.543   3.009 -0.2374  0.0663  0.0580
15945PP      PP26049   6.168  11.710   1.408  0.2115 -0.2132  0.2444
15946PP      PP26050   2.218  13.695   1.916 -0.3874  0.2006  0.1286
15947PP      PP26051   3.889   4.720  11.289  0.0536 -0.1567 -0.0437
15948PP      PP26052   3.384   0.268   0.846  0.1449  0.0027 -0.1004
15949PP      PP26053  12.063   9.068   0.200 -0.0497 -0.0392  0.1925
15950PP      PP26054  10.223   6.487  12.927  0.0138  0.1768 -0.1487
15951PP      PP26055  14.102  12.554   0.032 -0.4155 -0.1352  0.3774
15952PP      PP26056  10.857  12.816   9.654  0.0732 -0.2069  0.0280
15953PP      PP26057   7.634   3.958  10.223  0.0972 -0.1623  0.1085
15954PP      PP26058  10.330   7.030   1.983  0.0947  0.3760  0.0587
15955PP      PP26059  11.104   5.184   2.111  0.0836  0.0554 -0.0603
15956PP      PP26060   4.224   7.109   9.294 -0.0971  0.3482 -0.1526
15957PP      PP26061  14.747  14.234   3.178  0.0762  0.0903 -0.1589
15958PP      PP26062   3.539  10.635   3.836  0.2370 -0.0215 -0.2251
15959PP      PP26063  15.125  13.269   0.768 -0.0026  0.0730  0.3341
15960PP      PP26064   5.354  13.420   4.024 -0.0876  0.0576 -0.0776
15961PP      PP26065   4.631  10.243   4.236 -0.1721 -0.0182 -0.1870
15962PP      PP26066   4.101   9.464  13.424 -0.0215  0.2955  0.0922
15963PP      PP26067   8.539  10.026   0.506 -0.0395  0.0222 -0.0932
15964PP      PP26068  11.020  11.012   1.457 -0.0683  0.1068 -0.2891
15965PP      PP26069   5.679  14.531   0.002 -0.1146  0.0239  0.2086
15966PP      PP26070  12.593   6.336   9.838 -0.0131  0.0762  0.0668
15967PP      PP26071   4.761  15.748   1.695 -0.0821  0.0333  0.2250
15968PP      PP26072   8.449  14.687  12.179 -0.0817  0.0928 -0.2030
15969PP      PP26073   8.191  14.357   4.395  0.1000 -0.0482  0.4880
15970PP      PP26074   6.705   3.430  10.507 -0.2976  0.1858 -0.3491
15971PP      PP26075  11.502   8.420  11.237  0.0577 -0.4180  0.0909
15972PP      PP26076  11.171   1.698   4.760  0.0406 -0.0738 -0.1092
15973PP      PP26077   0.736   2.462   9.364 -0.0498  0.3223 -0.0074
15974PP      PP26078  11.465   5.751  10.944 -0.0891  0.3555 -0.0881
15975PP      PP26079  12.711  11.320   5.312  0.2885 -0.1602  0.0194
15976PP      PP26080   0.090  14.971   9.206  0.1111  0.1016  0.0150
15977PP      PP26081   5.481  12.852   0.424  0.1454 -0.1527  0.0148
15978PP      PP26082   6.847   4.693   0.251 -0.0510 -0.0375 -0.1024
15979PP      PP26083   3.822   4.626  10.150  0.0370  0.4755 -0.0257
15980PP      PP26084  13.167  14.761  12.270 -0.1426  0.1922 -0.1377
15981PP      PP26085   6.698   5.818   9.720 -0.0961  0.0638 -0.2384
15982PP      PP26086   5.797  13.787   0.618 -0.0980 -0.1192 -0.0828
15983PP      PP26087   2.149  11.542   0.251  0.3694 -0.3065  0.1370
15984PP      PP26088   9.753   3.088  11.973  0.1798 -0.3316 -0.0210
15985PP      PP26089   4.501   7.538   4.172 -0.1562  0.2715 -0.6243
15986PP      PP26090   8.253   2.645  10.711  0.3898  0.3619 -0.0449
15987PP      PP26091  11.135  12.222   2.873 -0.1667  0.2741 -0.0007
15988PP      PP26092   3.716   9.004   2.421  0.2300 -0.1175  0.1578
15989PP      PP26093   0.105   2.961   0.749 -0.1502 -0.1814 -0.5047
15990PP      PP26094   0.187   2.499   9.057  0.1355 -0.0351  0.0411
15991PP      PP26095   0.516   9.046   9.978  0.0648  0.4800 -0.4084
15992PP      PP26096   3.893  13.347  10.706  0.2027 -0.1631 -0.0923
15993PP      PP26097   9.159  12.478   2.256 -0.1788  0.0512 -0.1712
15994PP      PP26098   0.822   4.556  13.231 -0.2044 -0.0704 -0.0056
15995PP      PP26099   2.411  13.626  12.012 -0.0061  0.0418 -0.0430
15996PP      PP26100  15.779  12.767  10.065 -0.1191  0.1451  0.2582
15997PP      PP26101   7.154   0.714  12.680 -0.1187  0.0604  0.2625
15998PP      PP26102   9.714   3.457   3.179 -0.1994 -0.1604 -0.1808
15999PP      PP26103  13.562  10.145   9.663  0.1547 -0.0335 -0.2210
16000PP      PP26104   7.909  11.047   1.758  0.1381  0.1793 -0.0155
16001PP      PP26105  12.368   9.921   4.017 -0.1884  0.2146  0.0238
16002PP      PP26106   4.215   5.788   9.465  0.0429  0.1574  0.2975
16003PP      PP26107   4.819   2.979  11.928  0.4155 -0.0256  0.1484
16004PP      PP26108   3.721  13.827   1.634  0.1837  0.0241 -0.1059
16005PP      PP26109   2.417   1.478  12.406  0.1893  0.2363 -0.0385
16006PP      PP26110   7.373   1.603   4.695 -0.4249 -0.0435  0.0139
16007PP      PP26111   5.259  12.191  10.724  0.3159  0.0925  0.2718
16008PP      PP26112   1.037   9.116   0.296  0.1520 -0.1894 -0.0058
16009PP      PP26113   2.526   2.655  12.938  0.1797 -0.0922  0.0349
16010PP      PP26114  11.165  15.497  13.418 -0.1520 -0.2787 -0.2159
16011PP      PP26115  14.362   0.433  10.259 -0.0357 -0.1018 -0.0314
16012PP      PP26116   5.297   4.552   2.597  0.0760 -0.0535 -0.0128
16013PP      PP26117  15.151   1.594   3.408 -0.0208  0.2074 -0.1658
16014PP      PP26118   6.834   0.035   4.086  0.3040  0.0004  0.2798
16015PP      PP26119   9.835   7.237   3.321 -0.1446  0.1485  0.2351
16016PP      PP26120   5.869   3.699   8.997  0.0733  0.0449  0.4949
16017PP      PP26121   4.049   3.662  11.155 -0.2159  0.2366 -0.4704
16018PP      PP26122   5.100   3.677   2.257  0.0767  0.0648 -0.4256
16019PP      PP26123  14.703  11.166   0.549  0.0352  0.2321  0.0356
16020PP      PP26124  13.662  15.845   9.536  0.2188  0.1976  0.0293
16021PP      PP26125   7.781   5.525  11.946 -0.1197 -0.3312  0.1229
16022PP      PP26126   0.327  11.808   8.699  0.1415  0.0805 -0.0402
16023PP      PP26127   6.120  15.628   0.554  0.3499  0.0789 -0.1248
16024PP      PP26128   6.322   5.089  11.473  0.0758 -0.4027  0.0237
16025PP      PP26129   6.369   8.678   1.019  0.2401 -0.0473  0.0321
16026PP      PP26130  10.003   5.047   8.450 -0.0568  0.1203 -0.4098
16027PP      PP26131   6.402  11.294   0.608  0.2302 -0.1234 -0.0215
16028PP      PP26132   3.672  11.470  11.086 -0.0191  0.3368  0.0454
16029PP      PP26133   5.350   1.699  11.912  0.2675 -0.1541 -0.2732
16030PP      PP26134  12.712  14.345   4.105 -0.1094  0.1707 -0.4342
16031PP      PP26135  10.851   2.038  10.916  0.0810 -0.2295  0.3902
16032PP      PP26136   6.231   9.742   9.942  0.0965  0.2557  0.1720
16033PP      PP26137   2.103   3.018   1.806 -0.1921 -0.0899  0.3186
16034PP      PP26138   0.298   1.287  10.553  0.0336 -0.0343 -0.1342
16035PP      PP26139   5.218   0.470   0.493 -0.0461  0.0783 -0.0222
16036PP      PP26140  14.150  10.971  12.667  0.1351 -0.1176  0.0496
16037PP      PP26141   2.471   6.911   0.018  0.0591 -0.0166  0.1161
16038PP      PP26142   8.743   7.545   1.606 -0.0041 -0.1766 -0.1125
16039PP      PP26143   3.266   4.505  12.451  0.0986 -0.4078 -0.0661
16040PP      PP26144   7.800   4.074  11.650  0.2416  0.0213  0.1692
16041PP      PP26145   3.211   0.486  12.127 -0.0334  0.1612 -0.2652
16042PP      PP26146  15.361   5.123  12.380 -0.3366  0.2595 -0.0395
16043PP      PP26147   8.405  12.434   0.157 -0.1062  0.3955 -0.0712
16044PP      PP26148   9.861   7.642   3.596 -0.1382  0.0180  0.2149
16045PP      PP26149   0.728  13.799   0.316 -0.0376  0.0015 -0.1918
16046PP      PP26150   3.760   9.124  11.571 -0.3995  0.0778  0.0618
16047PP      PP26151   5.920   9.643  12.665 -0.1667  0.0047  0.0541
16048PP      PP26152   6.568   8.725  12.309  0.0168  0.0206  0.0439
16049PP      PP26153  15.371  12.745   9.718  0.0414 -0.1697  0.0190
16050PP      PP26154   5.998  12.741   4.801  0.3017  0.0353 -0.0901
16051PP      PP26155   9.288   5.225   0.457 -0.1283  0.0115  0.0809
16052PP      PP26156  11.777  14.273  10.458  0.2826  0.1907  0.2036
16053PP      PP26157   2.483  10.468   3.102 -0.2382  0.2398 -0.0924
16054PP      PP26158   2.035   2.037   2.434  0.2149 -0.2133  0.1930
16055PP      PP26159  14.889   3.341   1.088  0.2814 -0.1842 -0.0378
16056PP      PP26160  10.203   4.285   2.929  0.0627 -0.2712  0.2541
16057PP      PP26161  11.726  11.473  11.674  0.0234  0.3073  0.1550
16058PP      PP26162   5.839   5.416   0.445  0.0632 -0.0811  0.1547
16059PP      PP26163  12.889   9.756  10.393  0.1883 -0.3172  0.1921
16060PP      PP26164  11.813  11.797   8.838  0.1309  0.0823  0.0630
16061PP      PP26165  13.176  13.297  13.540 -0.2748  0.4682 -0.1510
16062PP      PP26166  14.313   2.551   1.483  0.0802 -0.1072  0.0474
16063PP      PP26167  12.924   5.064   1.875  0.1545  0.2733  0.0182
16064PP      PP26168  12.893   2.884   1.962  0.0779 -0.0194 -0.1936
16065PP      PP26169  11.286   4.948  10.786  0.0430  0.2418 -0.1800
16066PP      PP26170  14.813   7.650  12.614 -0.2672 -0.1038  0.0593
16067PP      PP26171   3.063   0.077   9.991  0.0593  0.0411 -0.0367
16068PP      PP26172   1.739   9.887   2.174 -0.2530  0.2449 -0.0382
16069PP      PP26173   2.527  13.918  12.651 -0.2061  0.0167 -0.1624
16070PP      PP26174  13.616   4.403   8.671 -0.4988 -0.1389 -0.1009
16071PP      PP26175  12.015  11.285  10.741 -0.0367  0.0894  0.1320
16072PP      PP26176   2.856   8.652   3.529 -0.0120  0.0243  0.1845
16073PP      PP26177  14.603   7.575   1.378 -0.1788 -0.2618  0.0010
16074PP      PP26178  10.757   0.886  11.659 -0.0971  0.0097  0.0809
16075PP      PP26179  12.906   1.941  13.254  0.0926  0.2148 -0.0585
16076PP      PP26180   1.245  15.583   2.508 -0.2095 -0.1843  0.0074
16077PP      PP26181   8.055  15.038  12.142 -0.2121  0.1662 -0.0112
16078PP      PP26182  10.066   5.465  11.971 -0.2552 -0.0225  0.2631
16079PP      PP26183  10.215   6.059   0.636 -0.0938 -0.2956 -0.3013
16080PP      PP26184   6.475   0.276  13.158 -0.2259  0.0258  0.4422
16081PP      PP26185  15.599   4.329  10.166  0.0007 -0.0580 -0.1468
16082PP      PP26186   3.930   3.496   0.868  0.0986 -0.0706 -0.1379
16083PP      PP26187   9.528  11.798  11.011  0.0693 -0.0713 -0.2370
16084PP      PP26188   9.970  12.774  10.947 -0.1183  0.0749 -0.0854
16085PP      PP26189  12.204  11.096  10.166 -0.2963  0.0441 -0.1408
16086PP      PP26190   0.139   2.843  11.062 -0.1219 -0.2479 -0.3101
16087PP      PP26191   2.272   0.257   1.384 -0.1439  0.0600  0.0423
16088PP      PP26192   3.971  13.267   2.468 -0.1646  0.1162 -0.0874
16089PP      PP26193  15.791  14.515   9.359 -0.2619  0.1219  0.1300
16090PP      PP26194  12.910  15.556  11.148  0.0804  0.4858 -0.0571
16091PP      PP26195  15.495  10.167  11.301 -0.0859 -0.1713  0.1083
16092PP      PP26196   5.829  12.746   9.432  0.2480 -0.4518  0.3480
16093PP      PP26197   2.817  15.445   0.321  0.4372 -0.0808 -0.2523
16094PP      PP26198   8.519  14.074   3.010 -0.1840  0.0334  0.0863
16095PP      PP26199  12.742   2.479   3.485  0.0199 -0.0828 -0.1875
16096PP      PP26200   9.815  13.504  12.979 -0.4188  0.2723  0.0864
16097PP      PP26201  13.596  11.556  10.156 -0.0291 -0.2812 -0.0630
16098PP      PP26202   1.708  11.534  12.385 -0.1624  0.1201 -0.1608
16099PP      PP26203  12.374   8.322   1.524  0.1371  0.1910 -0.0592
16100PP      PP26204  10.230   7.746  12.113  0.1004 -0.2106  0.1319
16101PP      PP26205  13.737  11.029   1.080  0.1624 -0.3087 -0.1248
16102PP      PP26206  14.621   9.863   2.665 -0.1835  0.1191 -0.2453
16103PP      PP26207   4.355  10.555  12.474 -0.0104  0.2948 -0.2990
16104PP      PP26208  14.081  11.901  10.053 -0.0657 -0.0218  0.0544
16105PP      PP26209   7.297   3.997   0.302 -0.1530  0.0634  0.1793
16106PP      PP26210   1.698   4.975   1.420 -0.1167 -0.1246 -0.2042
16107PP      PP26211  15.633   5.616  11.668  0.1576 -0.2722  0.0958
16108PP      PP26212   3.542  13.252   9.662  0.2928  0.1110  0.1703
16109PP      PP26213   8.454   3.457  13.259 -0.0083  0.0189  0.1681
16110PP      PP26214  13.499  11.077   3.219  0.1095  0.0523  0.1735
16111PP      PP26215   3.315   1.066   9.168 -0.1551 -0.1345  0.1328
16112PP      PP26216  15.419  14.704  11.565 -0.1403  0.1869  0.2012
16113PP      PP26217  10.904   2.436  11.234  0.0817  0.1666 -0.1546
16114PP      PP26218  15.473   0.907   0.984  0.0829  0.1799 -0.0256
16115PP      PP26219   4.251   4.766   9.476 -0.3575  0.2781 -0.0636
16116PP      PP26220  13.960  13.190   8.773  0.1808  0.2833 -0.1294
16117PP      PP26221  14.052   3.560   4.129 -0.1534  0.2142 -0.6151
16118PP      PP26222   1.738  12.793   1.853  0.1005  0.1357  0.1044
16119PP      PP26223  11.147   3.243   1.766  0.2806  0.0824 -0.1897
16120PP      PP26224   8.557   0.113   1.727  0.0321  0.0625 -0.3642
16121PP      PP26225   4.226  10.531  11.989  0.2284 -0.1651 -0.0470
16122PP      PP26226   4.268   6.697   1.056 -0.1975  0.0292  0.3070
16123PP      PP26227   6.120  15.828  13.515  0.1476  0.3023 -0.0121
16124PP      PP26228  10.287   7.059  11.574 -0.0252 -0.0679  0.0757
16125PP      PP26229   9.127   1.024  13.526  0.2761 -0.0770 -0.0073
16126PP      PP26230  14.766   6.290  12.113 -0.0813 -0.1544 -0.1826
16127PP      PP26231  12.698   6.523   0.044 -0.2344  0.1082 -0.0776
16128PP      PP26232  10.973  13.706   2.477  0.1360  0.1716 -0.0002
16129PP      PP26233   6.326  13.950   4.693  0.1418 -0.0081 -0.1544
16130PP      PP26234  15.198   7.615   3.712  0.0106  0.0004  0.2315
16131PP      PP26235  10.430   4.124   0.808  0.1876 -0.1779  0.4098
16132PP      PP26236  10.334  13.441  10.159  0.3703  0.1788 -0.2426
16133PP      PP26237   7.153   8.157   9.419 -0.0917 -0.1459 -0.1131
16134PP      PP26238  10.929   4.022   3.527 -0.0312 -0.1936  0.0028
16135PP      PP26239   6.370  12.393  10.844 -0.0734 -0.2026 -0.1332
16136PP      PP26240  14.931  10.423   2.044  0.1555  0.0895 -0.0473
16137PP      PP26241   6.817   1.035  12.579 -0.3389  0.3250 -0.1561
16138PP      PP26242   5.550   4.639  12.946  0.0193 -0.0498 -0.0954
16139PP      PP26243  12.511  11.270   1.065  0.0823 -0.0831  0.0743
16140PP      PP26244   8.252   0.558   1.918 -0.0695 -0.0315 -0.1478
16141PP      PP26245   1.960   3.825  12.040 -0.0102  0.2276 -0.3439
16142PP      PP26246   9.580   2.221   1.255 -0.1167  0.0907  0.3163
16143PP      PP26247   3.087   7.167  11.305  0.0015  0.1232  0.2956
16144PP      PP26248  11.065  11.050  13.010 -0.0683  0.0335  0.1149
16145PP      PP26249   5.440   5.972  11.669  0.1965 -0.0635 -0.0206
16146PP      PP26250   2.726   3.985   4.016  0.0985  0.1417  0.0401
16147PP      PP26251   9.099   2.322   2.809 -0.0672 -0.3635  0.2820
16148PP      PP26252  12.050   5.349   2.591 -0.0068 -0.3092 -0.2942
16149PP      PP26253  10.740   3.690   4.018  0.3366  0.1400 -0.0096
16150PP      PP26254  11.535  10.520  11.873  0.0557 -0.0049 -0.0082
16151PP      PP26255   1.115   4.640   3.675  0.2961  0.2791 -0.1007
16152PP      PP26256   8.049   3.064  10.468  0.3001 -0.2383  0.0278
16153PP      PP26257  11.443   7.799  12.994 -0.4289 -0.1620 -0.0199
16154PP      PP26258  15.673   5.338  11.288 -0.2071 -0.2697 -0.1971
16155PP      PP26259  10.417   2.875  13.148 -0.1569  0.0147 -0.0074
16156PP      PP26260   7.833   1.922   3.836  0.0786 -0.1404  0.0759
16157PP      PP26261  15.482  10.420  12.304  0.1019 -0.0755 -0.2356
16158PP      PP26262  10.215   0.852  13.072  0.0339  0.0364 -0.2419
16159PP      PP26263   1.101  15.548   3.014  0.0035 -0.4046 -0.0475
16160PP      PP26264   5.495   6.790   2.535  0.0837  0.1036 -0.2932
16161PP      PP26265  10.229   4.102   3.394  0.0057 -0.2992 -0.1460
16162PP      PP26266   5.036   2.926   8.691 -0.2129 -0.2730 -0.0529
16163PP      PP26267  13.401   9.002   0.451 -0.0148 -0.1392 -0.0754
16164PP      PP26268   1.749   3.362   3.324  0.3904  0.0520  0.1120
16165PP      PP26269   2.810  10.286  10.032  0.3987 -0.2564  0.1129
16166PP      PP26270  14.039   4.125  12.122  0.0073 -0.1048 -0.1553
16167PP      PP26271   3.652  14.812  10.681  0.0753  0.0777  0.0696
16168PP      PP26272   9.957  14.544   1.231 -0.2319  0.2237 -0.0071
16169PP      PP26273  14.627  12.316   3.071  0.0071  0.1255  0.0280
16170PP      PP26274   9.726   5.875   1.045 -0.2060 -0.0395 -0.2650
16171PP      PP26275   5.669  13.029  10.972  0.1616  0.3231 -0.2551
16172PP      PP26276  11.558   7.585   0.418  0.0181 -0.1420  0.0084
16173PP      PP26277   8.259   2.118  13.161 -0.0281  0.1402 -0.0802
16174PP      PP26278   2.049  14.523   9.139  0.1135 -0.2689  0.1067
16175PP      PP26279  14.898   5.053  13.369  0.4611  0.1730  0.3635
16176PP      PP26280   7.604  14.320   3.945  0.1081 -0.1297  0.0509
16177PP      PP26281  14.656   5.521   9.213 -0.1066 -0.0141  0.1374
16178PP      PP26282  13.687  14.155   2.966  0.0220  0.1627  0.1515
16179PP      PP26283  10.338   2.695  11.973 -0.0959  0.0595 -0.0173
16180PP      PP26284  10.718   2.370  13.318  0.1256 -0.0665 -0.0848
16181PP      PP26285   5.115   6.302   1.670 -0.2996 -0.3158  0.1791
16182PP      PP26286   2.845   8.826   9.139  0.3150  0.1161  0.3410
16183PP      PP26287   0.125  10.659  11.347 -0.0656 -0.0413 -0.0374
16184PP      PP26288   2.640   5.580  10.210  0.1593 -0.0144 -0.0417
16185PP      PP26289  12.107  11.973   0.146  0.2143  0.1584  0.1047
16186PP      PP26290   1.892   0.701   1.801 -0.2742 -0.1828  0.1569
16187PP      PP26291   2.831   8.127   0.456 -0.1651  0.0760  0.0617
16188PP      PP26292   9.778   6.968  11.888  0.2265 -0.0931  0.2258
16189PP      PP26293   2.146   9.661  11.473  0.0671  0.0549  0.3799
16190PP      PP26294  14.238   8.830  11.533 -0.1280  0.1251 -0.2766
16191PP      PP26295  13.790   7.637   3.954 -0.0068 -0.1558 -0.0249
16192PP      PP26296  10.033   8.541  12.390 -0.0815 -0.0735  0.0513
16193PP      PP26297  12.890   4.641  12.010  0.1532  0.0382  0.1125
16194PP      PP26298  14.519   4.723   9.270  0.2188 -0.1842  0.2726
16195PP      PP26299   1.792   1.525  12.037  0.0657  0.1127 -0.2644
16196PP      PP26300   4.897   0.280   1.789 -0.1290 -0.3102  0.0417
16197PP      PP26301  12.330   2.264  11.756 -0.1546 -0.1089  0.1356
16198PP      PP26302  10.025   6.677   1.157  0.2308  0.0048  0.2220
16199PP      PP26303  10.642   5.565   7.942 -0.2927 -0.3486 -0.1323
16200PP      PP26304  12.884   1.270   2.495 -0.1709  0.0022  0.0432
16201PP      PP26305   6.007   2.942   2.765 -0.3001  0.0886 -0.0867
16202PP      PP26306  12.318   7.836  10.563 -0.2813  0.0234  0.0198
16203PP      PP26307   4.927  15.388  10.068 -0.3513 -0.1272 -0.0175
16204PP      PP26308  12.434  10.680  10.348  0.0792  0.4378  0.0759
16205PP      PP26309   5.683   7.225   1.158 -0.0577 -0.0183  0.0489
16206PP      PP26310   5.295  14.284  13.351  0.0229 -0.1578 -0.1197
16207PP      PP26311   2.298   9.352   9.824  0.1821 -0.1391  0.0701
16208PP      PP26312   3.593   5.233   2.571 -0.0903  0.2604  0.1720
16209PP      PP26313   1.939   3.514   4.250  0.1853 -0.1131  0.3141
16210PP      PP26314   2.732  13.185   2.367 -0.1142 -0.1725  0.0556
16211PP      PP26315  11.388   1.844  13.011 -0.0149  0.0505 -0.0837
16212PP      PP26316   3.707   7.036   8.544 -0.0479  0.1583 -0.1879
16213PP      PP26317  13.959   7.813   8.875 -0.2484 -0.0277 -0.1082
16214PP      PP26318  10.094   3.107   2.982  0.0796 -0.2016 -0.0840
16215PP      PP26319  12.422   5.937  11.079 -0.1507 -0.1962  0.0285
16216PP      PP26320  14.225   8.676  12.040  0.1519 -0.0057  0.0088
16217PP      PP26321   6.651  14.603  12.746 -0.1189 -0.2647 -0.4543
16218PP      PP26322  11.767   5.545   8.986  0.3447  0.0502  0.2847
16219PP      PP26323  14.149   5.561   3.164 -0.1322  0.3100  0.0377
16220PP      PP26324   0.600  15.405   4.493 -0.0887  0.2186 -0.0642
16221PP      PP26325   3.531   5.404   0.071  0.4336 -0.4549 -0.0548
16222PP      PP26326  12.201   2.569   0.863 -0.0258  0.2294  0.2051
16223PP      PP26327   9.566   2.002  10.600  0.2198  0.3158  0.3444
16224PP      PP26328   5.074   2.928   4.816 -0.0335 -0.0274 -0.2826
16225PP      PP26329   7.000  10.326   2.729 -0.0542 -0.0894  0.1071
16226PP      PP26330   3.524   8.833   4.346 -0.0403 -0.1169 -0.0265
16227PP      PP26331  15.514   9.898  12.246  0.0693 -0.1816  0.1364
16228PP      PP26332   1.336  12.489   3.369 -0.0641 -0.1334  0.1540
16229PP      PP26333  10.555   3.107   9.749  0.1618  0.1021 -0.1388
16230PP      PP26334   0.924   8.351   0.102  0.3023 -0.0445 -0.0056
16231PP      PP26335   3.548   2.480  10.682 -0.1802 -0.0045 -0.1989
16232PP      PP26336  11.811  14.422   0.833  0.0090  0.1308  0.1444
16233PP      PP26337   6.064   8.104   8.575  0.0078 -0.1971  0.1086
16234PP      PP26338   1.989  12.636   3.628 -0.0598 -0.2145 -0.0110
16235PP      PP26339   9.900  13.283   0.352  0.0180 -0.1342 -0.1720
16236PP      PP26340  13.639  15.335   9.854 -0.2204  0.1275  0.2580
16237PP      PP26341   3.755   2.824   9.744 -0.1039 -0.3502  0.2675
16238PP      PP26342  14.427  10.207   4.209 -0.0548 -0.1493  0.1609
16239PP      PP26343  11.161   1.416  13.176 -0.1641  0.0245  0.4055
16240PP      PP26344   3.583   4.634  10.626  0.4561  0.0420  0.1461
16241PP      PP26345  13.724   6.480  11.990 -0.2056 -0.0187  0.2674
16242PP      PP26346   4.514   6.727   2.829  0.2277 -0.3947  0.0240
16243PP      PP26347   2.149  10.311   2.292 -0.1165  0.0912  0.0023
16244PP      PP26348  12.480   4.421  12.939 -0.0545 -0.1725  0.2019
16245PP      PP26349  12.382  12.135  13.297  0.1696  0.0087 -0.0758
16246PP      PP26350   0.718   3.238  13.209 -0.1464 -0.0725  0.1143
16247PP      PP26351  11.496  13.947   4.943 -0.1089 -0.1431  0.2657
16248PP      PP26352  15.078   2.106   9.008  0.6796  0.0899 -0.1469
16249PP      PP26353  14.283   0.707   2.279  0.2700  0.0375 -0.0969
16250PP      PP26354  14.501   5.940   7.920  0.1408  0.0139  0.0434
16251PP      PP26355   2.155   4.617   3.682 -0.1963  0.1206  0.2165
16252PP      PP26356   4.607   5.643   2.814  0.3046 -0.2314 -0.1689
16253PP      PP26357   8.115   9.764   2.731  0.0548  0.1253  0.0342
16254PP      PP26358  15.056   8.010   0.490 -0.0126 -0.0226 -0.1307
16255PP      PP26359  12.708  14.390  10.102  0.0766 -0.1657 -0.1975
16256PP      PP26360  12.641  13.858  12.274  0.1417  0.4688  0.1669
16257PP      PP26361  10.088  13.557  12.515 -0.0309  0.0233 -0.3207
16258PP      PP26362   6.590  10.711   4.011 -0.1792  0.2101  0.2820
16259PP      PP26363  13.668  10.398   0.788  0.0649  0.0334 -0.0345
16260PP      PP26364   0.375   5.946   8.045  0.1995  0.0089 -0.2423
16261PP      PP26365   5.332  12.053   3.608  0.0001 -0.0148 -0.1578
16262PP      PP26366   6.274   0.377  12.704  0.0229  0.3119  0.2513
16263PP      PP26367  15.663   8.010   1.872 -0.0460 -0.0145  0.1797
16264PP      PP26368   4.992  14.113   1.586  0.2423  0.0864 -0.1761
16265PP      PP26369  10.929   1.006   9.973  0.0299  0.3313 -0.3700
16266PP      PP26370   2.850   3.874   3.439  0.2456  0.2948 -0.0900
16267PP      PP26371  10.589   7.952  12.930 -0.0451  0.0728  0.1403
16268PP      PP26372  11.278   5.965   0.983  0.1592 -0.0723  0.1592
16269PP      PP26373  10.551   0.902   3.506  0.0399  0.0972  0.0034
16270PP      PP26374   2.177   7.973  10.851  0.1990  0.5745 -0.0819
16271PP      PP26375   0.145   5.819  12.219 -0.2261  0.1400  0.0914
16272PP      PP26376   6.169   0.147   9.920  0.1975 -0.3580  0.1106
16273PP      PP26377   7.053  12.606  11.886 -0.0603  0.0576  0.2660
16274PP      PP26378   4.367   4.760   9.940  0.0296 -0.1331  0.2211
16275PP      PP26379   2.209   7.746  11.673  0.1654 -0.1818 -0.1100
16276PP      PP26380  15.500   1.423   0.662 -0.0503 -0.1164 -0.2011
16277PP      PP26381   8.032  11.681  12.221 -0.0274  0.2160  0.2104
16278PP      PP26382  13.347   8.348   8.176  0.0449 -0.2157  0.2105
16279PP      PP26383   0.866  11.536  12.906  0.1432 -0.0107 -0.0701
16280PP      PP26384   3.273   8.506  10.104 -0.3611 -0.1584 -0.4008
16281PP      PP26385  12.759   0.122   9.567 -0.1851  0.0166  0.1327
16282PP      PP26386   9.041  10.546   3.687  0.1271  0.1218 -0.1502
16283PP      PP26387  12.016   0.925  13.301 -0.2053  0.1202  0.0927
16284PP      PP26388  13.407  13.710   2.759 -0.4213  0.0046 -0.0048
16285PP      PP26389   8.758   7.875  11.574 -0.2802 -0.2209  0.4061
16286PP      PP26390  14.368   1.756   4.122 -0.1259  0.4789  0.0072
16287PP      PP26391  14.124   2.222   1.795 -0.0068  0.2840 -0.1866
16288PP      PP26392  11.914  12.133  11.123 -0.0749  0.1255  0.1903
16289PP      PP26393   5.677   6.623   1.550  0.0848 -0.3186 -0.0557
16290PP      PP26394   5.756   7.739   0.986  0.1986 -0.0062 -0.1519
16291PP      PP26395  10.917  14.757   3.028  0.3458  0.1781 -0.1213
16292PP      PP26396   3.743   0.469  11.573  0.0817 -0.1568  0.3614
16293PP      PP26397  10.750   0.300   2.723 -0.1715 -0.0260  0.1078
16294PP      PP26398   1.293  11.249   9.766 -0.1608 -0.2362  0.1042
16295PP      PP26399   8.963  14.534   2.980 -0.2676  0.2043 -0.1734
16296PP      PP26400  14.732   5.939   2.707 -0.3209 -0.2356  0.0495
16297PP      PP26401   2.382   9.762  13.287 -0.1613 -0.3052  0.0769
16298PP      PP26402  13.508   0.146   0.262 -0.1423 -0.0089  0.0211
16299PP      PP26403   2.473  11.842   1.974 -0.1534 -0.2085 -0.1683
16300PP      PP26404   2.554  11.922  13.126  0.0809  0.1435  0.0920
16301PP      PP26405   0.541   8.345   0.593  0.1079  0.0417 -0.0309
16302PP      PP26406   4.645   9.578  11.845  0.1160 -0.1386 -0.1398
16303PP      PP26407  13.362  14.842  13.281 -0.1475  0.0952 -0.0539
16304PP      PP26408  12.730   5.595   1.862  0.1040 -0.0536 -0.2418
16305PP      PP26409   1.601   5.793  11.060  0.0677  0.0091  0.0971
16306PP      PP26410   4.984   6.410  12.639  0.1446 -0.0714  0.1640
16307PP      PP26411  12.715  12.127  10.652  0.0005  0.1942 -0.2036
16308PP      PP26412  14.014  14.946   2.364  0.0058 -0.0891 -0.0283
16309PP      PP26413   5.760   7.336   2.107 -0.1318  0.1070 -0.1314
16310PP      PP26414  15.258   1.783   2.102  0.0457  0.1575  0.1868
16311PP      PP26415  15.310   7.965   8.429 -0.0954 -0.1602  0.1169
16312PP      PP26416   8.099   5.172  12.894  0.0860  0.1823  0.1132
16313PP      PP26417   1.286   2.383  11.923  0.0113  0.4006 -0.0266
16314PP      PP26418  15.607   4.155  10.628  0.3102  0.1548  0.1273
16315PP      PP26419   3.599   1.468  11.791  0.0175  0.3785 -0.3412
16316PP      PP26420   1.591   2.945  11.725  0.1524  0.0067 -0.0093
16317PP      PP26421   4.250  15.558   0.649  0.1407 -0.2804  0.1568
16318PP      PP26422   6.764   5.437   3.705  0.0449  0.2355 -0.1961
16319PP      PP26423  10.409  13.313   9.663  0.0557 -0.2042  0.0548
16320PP      PP26424   5.413   0.871   2.107  0.0762  0.2871  0.0097
16321PP      PP26425   5.141   0.533   8.892  0.1653  0.4053 -0.1485
16322PP      PP26426  13.379  10.095   1.736 -0.1612  0.1640  0.1365
16323PP      PP26427   3.931   7.997  11.470  0.0447 -0.3394 -0.2557
16324PP      PP26428  13.755  11.804   9.645 -0.1577 -0.0397 -0.0924
16325PP      PP26429  10.362   5.106  11.135  0.1407  0.0959 -0.1982
16326PP      PP26430   1.306   8.970  12.389  0.2670  0.2142  0.2682
16327PP      PP26431  14.120   5.759   1.375  0.0929 -0.0464 -0.0131
16328PP      PP26432  14.244   9.739   0.305 -0.0790  0.1240  0.3114
16329PP      PP26433   4.377   1.548  13.312 -0.0489  0.0761  0.3743
16330PP      PP26434   3.259   7.696   1.325  0.1255 -0.0353 -0.2841
16331PP      PP26435  14.313   1.602   2.604 -0.1322 -0.2137  0.3439
16332PP      PP26436  15.125   7.982  12.944 -0.1969 -0.3128 -0.0979
16333PP      PP26437   6.674  15.675   1.276  0.1331 -0.0459 -0.0800
16334PP      PP26438  12.691  12.415   2.603  0.1792 -0.3325  0.2171
16335PP      PP26439   9.583   9.454  11.566  0.4537  0.1622 -0.1566
16336PP      PP26440  11.934  14.062   0.239  0.2152 -0.0133 -0.0782
16337PP      PP26441   5.749  11.794  10.152 -0.2600 -0.0914  0.1706
16338PP      PP26442   8.137   8.190   3.136 -0.2059 -0.0248 -0.0326
16339PP      PP26443   1.812   0.466  12.350  0.1271 -0.1295  0.0225
16340PP      PP26444   7.996  11.693   4.522 -0.2098 -0.0654 -0.1713
16341PP      PP26445   7.407   8.713   1.397  0.4070  0.1154 -0.0352
16342PP      PP26446  10.246   5.664   1.228  0.1422  0.2125 -0.0695
16343PP      PP26447  15.313   9.287   2.716 -0.0547  0.1928  0.0995
16344PP      PP26448   0.640   7.217  10.586  0.2974  0.0871  0.0909
16345PP      PP26449   3.481   3.867   2.785  0.2879  0.1721 -0.0407
16346PP      PP26450   5.935  10.120   2.881 -0.0172 -0.1919  0.0863
16347PP      PP26451  11.279   4.162   1.705 -0.1559 -0.1685 -0.0538
16348PP      PP26452   0.812  15.710   1.469 -0.4605  0.1578  0.1559
16349PP      PP26453   6.882   7.928   0.091 -0.1327  0.0905 -0.0421
16350PP      PP26454  11.232  14.994   5.436  0.3197  0.0494 -0.2496
16351PP      PP26455   9.468   6.418   3.982 -0.3203  0.2892 -0.3408
16352PP      PP26456   4.156   8.103  11.049  0.1056 -0.0748  0.2253
16353PP      PP26457   6.685   0.498   0.658 -0.0920  0.0978  0.1567
16354PP      PP26458   9.550   1.924   0.192 -0.2161 -0.0810  0.0238
16355PP      PP26459   4.107   1.679  11.198  0.3630  0.3503  0.1289
16356PP      PP26460  11.993   2.095   1.231  0.1223  0.1037  0.1338
16357PP      PP26461  11.482   2.382   1.481 -0.2725 -0.0757 -0.1866
16358PP      PP26462   5.460  12.395   3.163  0.3853  0.0211  0.1835
16359PP      PP26463  12.931  10.658   9.090  0.1323 -0.1801 -0.0869
16360PP      PP26464  10.148   9.750   3.406  0.1669  0.2050 -0.0569
16361PP      PP26465   9.443   8.453   1.839  0.0222  0.1504  0.1015
16362PP      PP26466  15.349  11.951  10.530 -0.2976  0.0448  0.1229
16363PP      PP26467  12.274  12.589   4.350 -0.1737 -0.0287 -0.0973
16364PP      PP26468  12.379   1.412   2.292 -0.2455 -0.1182 -0.2133
16365PP      PP26469   6.334   6.192  11.842 -0.1434 -0.0253 -0.1565
16366PP      PP26470  15.830   4.691   2.151  0.0746 -0.1428 -0.0553
16367PP      PP26471   2.810  11.407   3.060 -0.1369 -0.1170  0.0152
16368PP      PP26472   6.523   8.340   1.617 -0.1795  0.0262  0.0524
16369PP      PP26473  11.744   0.902   2.036  0.4080  0.2290 -0.2318
16370PP      PP26474   5.094   0.558   9.468 -0.4278  0.1406 -0.1616
16371PP      PP26475   2.442   6.839   9.870  0.1107 -0.0482  0.0141
16372PP      PP26476  11.093   5.614  10.082  0.0314  0.0349  0.0705
16373PP      PP26477   6.850   5.706  10.288  0.0259  0.1860 -0.2514
16374PP      PP26478  13.979  10.516   3.813 -0.1525 -0.0075 -0.0225
16375PP      PP26479   4.530  13.421  10.497 -0.3903 -0.1378 -0.0424
16376PP      PP26480   6.633  13.302  10.700 -0.1860  0.1738 -0.1210
16377PP      PP26481  15.629   0.564   3.705 -0.1979 -0.1104 -0.1960
16378PP      PP26482  13.072  12.076   0.852  0.1010  0.1853  0.1046
16379PP      PP26483   6.740   2.753   4.081 -0.2690  0.1251  0.2128
16380PP      PP26484  12.392  14.698   9.949  0.4854 -0.2014 -0.1379
16381PP      PP26485  11.231  10.744   0.312  0.2289  0.2495 -0.0594
16382PP      PP26486   7.457   7.904   4.019 -0.0003  0.2686  0.0834
16383PP      PP26487  12.561   1.871  12.695  0.1108 -0.1111 -0.1057
16384PP      PP26488  11.834   0.871   9.463  0.0011  0.0387 -0.3913
16385PP      PP26489  11.224  13.195   3.317 -0.2641  0.0850  0.1532
16386PP      PP26490   7.521   5.199  11.170 -0.2248  0.0684  0.3624
16387PP      PP26491   4.773   9.268  12.726  0.2146 -0.1302 -0.2930
16388PP      PP26492   6.177   0.369   0.800  0.0168  0.0283 -0.0164
16389PP      PP26493   8.492   6.883  12.466  0.0676 -0.1656  0.1655
16390PP      PP26494  13.384   5.151   9.380  0.2714 -0.0937  0.0083
16391PP      PP26495   3.247   9.395   2.323 -0.1366 -0.0279  0.2255
16392PP      PP26496  12.940   8.104   1.606 -0.2407  0.2398 -0.0203
16393PP      PP26497   4.631   3.075   3.583  0.0154 -0.0433 -0.0380
16394PP      PP26498   0.248  10.432   9.634 -0.1183 -0.0607  0.2105
16395PP      PP26499   3.294   3.436  12.566 -0.0435  0.1813 -0.1133
16396PP      PP26500   0.339   1.791   9.688  0.2810  0.3365 -0.0544
16397PP      PP26501   4.938   0.386   2.726  0.1346  0.0308  0.3910
16398PP      PP26502   8.440   4.280  12.196 -0.2170  0.1045 -0.2002
16399PP      PP26503   7.824  15.854  12.659 -0.1797  0.2616  0.0593
16400PP      PP26504  14.266   2.428  12.895  0.1539 -0.2041 -0.0472
16401PP      PP26505  14.325   5.647   8.256 -0.3430  0.0901 -0.2338
16402PP      PP26506   4.690  12.835   3.731  0.3346 -0.1818 -0.1208
16403PP      PP26507   4.790   7.664   2.477  0.0364 -0.1528 -0.0174
16404PP      PP26508   7.148   2.233  12.580 -0.0621  0.2261  0.2899
16405PP      PP26509   7.435   5.852  11.309  0.1892 -0.2787  0.0654
16406PP      PP26510  11.732  12.037  11.732  0.1228  0.0225 -0.0389
16407PP      PP26511   0.666   4.836   3.620 -0.3892  0.1268  0.1692
16408PP      PP26512  15.200  14.468  10.557  0.2414  0.4589 -0.2705
16409PP      PP26513  10.611  12.268   4.029 -0.1588 -0.1973 -0.1302
16410PP      PP26514   0.419   9.225   3.713 -0.3946 -0.2079  0.3942
16411PP      PP26515  15.041   7.598   1.553  0.2917 -0.0081  0.1904
16412PP      PP26516  13.321   0.623  13.535  0.0030  0.1568  0.2443
16413PP      PP26517   8.437  12.070  13.400  0.0218  0.3361 -0.3134
16414PP      PP26518  12.461   9.962  12.146  0.1210  0.0791  0.0694
16415PP      PP26519   1.248  10.314   9.235  0.0551 -0.2451  0.1345
16416PP      PP26520  11.932   9.189  11.610  0.0978  0.0388 -0.0188
16417PP      PP26521   4.508  10.034   2.416 -0.0532 -0.1521  0.0115
16418PP      PP26522   9.281   4.304  11.408  0.1596 -0.0532 -0.6134
16419PP      PP26523  12.240   8.329   0.705 -0.0494  0.2305  0.1626
16420PP      PP26524  14.982   6.019   2.239  0.1896  0.3506  0.0832
16421PP      PP26525   4.652   0.721  12.631  0.0994 -0.1612  0.0779
16422PP      PP26526   9.130   1.831  10.370  0.2771  0.0974 -0.1087
16423PP      PP26527   7.935   4.211   1.138  0.1354 -0.0671 -0.0528
16424PP      PP26528  15.410  14.171  12.332  0.0883 -0.0095 -0.0452
16425PP      PP26529   0.601   6.805   3.815 -0.0546 -0.1943 -0.0556
16426PP      PP26530   0.661  14.143  11.636  0.0696 -0.1024  0.2738
16427PP      PP26531   9.043   3.470   1.290 -0.0302  0.1931 -0.0899
16428PP      PP26532   0.551   6.064  11.316 -0.0518  0.0820 -0.2713
16429PP      PP26533   9.294   4.068   1.115 -0.0738  0.0532  0.0586
16430PP      PP26534  13.911   0.388   1.946 -0.2146 -0.0851  0.0993
16431PP      PP26535  10.447  12.961  10.879  0.1250  0.1398 -0.1496
16432PP      PP26536  15.235   1.904  12.567  0.3291 -0.1181 -0.0247
16433PP      PP26537   8.076  15.291   2.212  0.2495 -0.4664 -0.5222
16434PP      PP26538  13.795   8.626   8.602  0.2953 -0.1324  0.0017
16435PP      PP26539   8.809  14.666   4.562 -0.0592 -0.0136  0.2293
16436PP      PP26540  12.501   8.180  13.182 -0.2901  0.1792  0.2697
16437PP      PP26541   7.397   1.567   9.778 -0.1531 -0.3278 -0.1730
16438PP      PP26542   9.067   9.166  13.302 -0.2180  0.0807  0.4709
16439PP      PP26543  10.147  11.947   0.220  0.2452 -0.1125  0.0013
16440PP      PP26544  13.793   1.830  10.989 -0.0300 -0.0385 -0.1938
16441PP      PP26545   0.876  14.533  11.457  0.3460 -0.1753  0.2166
16442PP      PP26546  10.973  15.052  12.438 -0.0645 -0.0397  0.1206
16443PP      PP26547  10.394  13.492   9.136 -0.0458 -0.1213 -0.0892
16444PP      PP26548   7.445  10.594  10.020 -0.2914 -0.0661 -0.2187
16445PP      PP26549  14.712   9.006   2.228 -0.0722 -0.0861 -0.0203
16446PP      PP26550   3.939   3.127  11.466 -0.0633 -0.1501  0.3469
16447PP      PP26551   8.269  13.373  10.038 -0.1842 -0.1774  0.0592
16448PP      PP26552  11.679  11.349   3.953 -0.0032  0.1267 -0.0528
16449PP      PP26553  13.244  12.240  10.525 -0.0054 -0.0555 -0.1255
16450PP      PP26554  12.726  15.258  10.328  0.0381 -0.2483 -0.2616
16451PP      PP26555   2.324   0.510  11.688  0.0020  0.1565 -0.0089
16452PP      PP26556   4.136   4.263   1.859 -0.1219 -0.0826 -0.1602
16453PP      PP26557   9.110  14.860   9.789  0.1215  0.1201 -0.2475
16454PP      PP26558  12.078   4.132  13.525  0.2116  0.0913  0.1878
16455PP      PP26559  11.414  11.339  13.231 -0.0320 -0.0552 -0.0873
16456PP      PP26560  11.876   3.391   9.550  0.1596 -0.2475  0.2974
16457PP      PP26561  10.309  14.722  11.809  0.1179  0.1575  0.1172
16458PP      PP26562  11.747  11.465   4.700  0.1445 -0.0044 -0.1129
16459PP      PP26563  11.399  12.820  10.083  0.0787 -0.0047  0.3529
16460PP      PP26564   5.818  12.615   1.678  0.2375  0.4250 -0.1610
16461PP      PP26565   0.472  15.539  13.436  0.1006  0.1835  0.1025
16462PP      PP26566   1.954   1.273  13.135 -0.0942 -0.4069  0.2873
16463PP      PP26567   7.380   9.508  12.870  0.1100 -0.0017 -0.0315
16464PP      PP26568   6.482   1.363   9.915  0.1551  0.2041  0.5727
16465PP      PP26569   5.694   0.636   0.368  0.3403 -0.1878  0.0517
16466PP      PP26570   6.228   1.993  11.380 -0.2582 -0.3032  0.0913
16467PP      PP26571   6.355   2.849   0.959  0.2478  0.1669 -0.1647
16468PP      PP26572   9.324  13.606  10.360  0.0036  0.1857 -0.0909
16469PP      PP26573   8.239  12.876   9.936  0.0215  0.3950 -0.0217
16470PP      PP26574  10.892   6.333  12.025 -0.1610 -0.2635 -0.2469
16471PP      PP26575  12.953   6.106   7.752 -0.0779  0.1662  0.2528
16472PP      PP26576  15.762   0.126   1.229  0.0448 -0.1481 -0.1532
16473PP      PP26577   1.994  15.633  12.961  0.1593 -0.0951  0.0278
16474PP      PP26578  14.314   0.666   3.226  0.2338  0.1319 -0.1225
16475PP      PP26579   9.260  11.501   2.642  0.2575  0.0635  0.0968
16476PP      PP26580   1.959   1.355  11.541 -0.0219  0.2518  0.0924
16477PP      PP26581   0.966  11.669  10.944 -0.0015 -0.0689 -0.0459
16478PP      PP26582   8.581   9.640  11.512 -0.1621  0.2722  0.2201
16479PP      PP26583  13.950   6.066   1.770  0.2186  0.5716  0.1058
16480PP      PP26584   9.566   7.977   8.718  0.0542 -0.0058  0.1692
16481PP      PP26585  12.093   3.030   1.589 -0.0220  0.0379 -0.2604
16482PP      PP26586  14.376  12.739   3.722 -0.0994 -0.2660  0.0409
16483PP      PP26587  10.554  12.014   0.485 -0.0726  0.0287  0.3531
16484PP      PP26588  13.978  12.326   0.735  0.0454 -0.2223 -0.3982
16485PP      PP26589  10.524   5.894  11.363  0.2318 -0.0948 -0.2923
16486PP      PP26590   7.682  14.431  12.751  0.5988  0.0170 -0.1072
16487PP      PP26591   1.465   2.308   0.264 -0.0693 -0.0178 -0.0920
16488PP      PP26592   4.349  10.507   9.835  0.0069 -0.0482  0.0807
16489PP      PP26593   8.258   5.457  13.291 -0.3090  0.1450  0.2680
16490PP      PP26594  10.970   4.719   8.260  0.1075  0.0143 -0.1002
16491PP      PP26595   6.328   6.455  10.652  0.1706  0.1193  0.2939
16492PP      PP26596  15.479   0.439   0.808  0.2582 -0.0686  0.1685
16493PP      PP26597   8.697   8.051   2.804 -0.0640 -0.3676  0.1972
16494PP      PP26598  13.575  11.960   0.759 -0.1419 -0.0109  0.1490
16495PP      PP26599   5.936   5.267   9.736 -0.1251  0.0266  0.0259
16496PP      PP26600   4.126   1.388  11.642 -0.1885 -0.1617 -0.0681
16497PP      PP26601   3.601   2.262   0.310 -0.1971 -0.0968  0.0981
16498PP      PP26602  15.598   2.773   1.126 -0.2478 -0.1350 -0.0160
16499PP      PP26603   8.818  13.010  11.718 -0.3091 -0.2630  0.1652
16500PP      PP26604   6.959   9.456   0.736 -0.0411  0.0847 -0.0181
16501PP      PP26605  13.653  13.119  13.298  0.2898  0.0927  0.0985
16502PP      PP26606   5.650   4.539  10.243 -0.0827  0.3172  0.0028
16503PP      PP26607   7.020   1.980   3.644  0.2826 -0.0187 -0.2099
16504PP      PP26608   7.329   9.411   2.380 -0.0138 -0.0948 -0.1278
16505PP      PP26609   4.582  10.239  11.732 -0.1364  0.0585 -0.1937
16506PP      PP26610  13.998   7.698  12.121 -0.1244  0.3807  0.1513
16507PP      PP26611   8.428   5.128   1.529 -0.1344 -0.0426 -0.2073
16508PP      PP26612  12.504  10.943   0.622  0.0928 -0.1135 -0.0431
16509PP      PP26613   0.731  14.162  12.546 -0.1296  0.2193 -0.1874
16510PP      PP26614   8.394   3.687   1.105  0.1413 -0.1002  0.2088
16511PP      PP26615   8.652   4.220   9.073 -0.1317 -0.3972 -0.0438
16512PP      PP26616  14.143  15.070   1.473  0.1689  0.1298 -0.1298
16513PP      PP26617   1.202   8.381  11.814  0.2809  0.0182  0.0439
16514PP      PP26618   6.137   2.270   3.623 -0.0915 -0.0989  0.2379
16515PP      PP26619   0.619   3.934   3.092 -0.4320 -0.0618 -0.0717
16516PP      PP26620   5.896  13.119   9.036  0.1349 -0.1685  0.2149
16517PP      PP26621   1.366   8.437  12.458 -0.0409 -0.0925 -0.2807
16518PP      PP26622  14.314  12.255   8.932  0.1312  0.2122 -0.1945
16519PP      PP26623   1.388  11.352   3.370 -0.3474 -0.0275 -0.0593
16520PP      PP26624   8.106  14.014   1.551 -0.2344  0.3469 -0.0399
16521PP      PP26625   9.425  15.677   0.483 -0.2165 -0.0598 -0.1148
16522PP      PP26626   4.832   9.797   0.909  0.0161 -0.2822 -0.1915
16523PP      PP26627   5.817   6.587  10.531  0.1423  0.1474  0.0352
16524PP      PP26628   0.814   0.770   2.724  0.3516 -0.1134 -0.0412
16525PP      PP26629   0.631   7.785  12.425 -0.0273 -0.0760  0.3478
16526PP      PP26630   0.399   4.231   1.171  0.3764 -0.3150 -0.0937
16527PP      PP26631   3.070  13.747   4.503  0.2000  0.2166  0.1148
16528PP      PP26632  13.526   0.061   3.127  0.3915 -0.1439 -0.1048
16529PP      PP26633  13.942  13.447   5.106  0.3493 -0.0937 -0.0199
16530PP      PP26634  14.692   4.869   1.767 -0.2700  0.3248  0.3499
16531PP      PP26635   3.324   0.003  11.967 -0.3207 -0.1671 -0.3107
16532PP      PP26636   6.988  14.936  12.641  0.3650  0.0909 -0.3983
16533PP      PP26637   6.539  13.262  11.549 -0.0338  0.1017  0.3555
16534PP      PP26638   7.808  13.024   1.549  0.0843  0.2242  0.1028
16535PP      PP26639  13.978   2.950   9.929 -0.0270 -0.0556 -0.0973
16536PP      PP26640   9.290   1.548  10.722 -0.1400 -0.0352  0.1132
16537PP      PP26641   6.830   3.826   3.743 -0.1356  0.1128  0.0071
16538PP      PP26642   3.908   6.792   2.590  0.0918 -0.1553 -0.0756
16539PP      PP26643   0.751   9.519   0.270  0.2134  0.1475 -0.0376
16540PP      PP26644   9.870  13.542  13.460  0.0223  0.0370  0.4700
16541PP      PP26645   6.366   1.615  13.444 -0.1170  0.0242  0.2303
16542PP      PP26646   3.029   8.076   1.608 -0.1985  0.1580 -0.0096
16543PP      PP26647   8.319  10.824   1.022 -0.2030 -0.0743  0.1208
16544PP      PP26648   1.214   8.193  11.001  0.2497  0.0108 -0.0185
16545PP      PP26649   6.121   2.718   2.242  0.2856 -0.2716  0.0735
16546PP      PP26650   0.491  15.887   1.842 -0.1332 -0.2006  0.1075
16547PP      PP26651   4.727   6.672  12.266  0.1401  0.0780  0.2231
16548PP      PP26652   4.872  11.734  13.279 -0.1974 -0.1033 -0.3777
16549PP      PP26653  12.180   2.195   3.118 -0.0461  0.0678 -0.0052
16550PP      PP26654  10.686   4.002   2.956  0.1324  0.2314  0.0620
16551PP      PP26655   9.176  15.102   0.867 -0.0921 -0.1546  0.1357
16552PP      PP26656  11.128  13.648   4.842  0.1312  0.0170 -0.0757
16553PP      PP26657  15.402   9.717   3.246 -0.3820 -0.0883  0.2571
16554PP      PP26658   9.618  13.963   0.229 -0.0064  0.2835  0.1569
16555PP      PP26659   5.408   1.654   4.010 -0.0210 -0.0307  0.2589
16556PP      PP26660   8.074  12.695  12.460 -0.2151  0.1971 -0.2090
16557PP      PP26661   0.010   0.208   0.498 -0.0865 -0.4526 -0.2652
16558PP      PP26662   1.087   3.666   4.239  0.2172 -0.0189 -0.0337
16559PP      PP26663  15.620  10.085  12.692  0.1138 -0.2827  0.1202
16560PP      PP26664   5.916   8.824  12.443 -0.0073  0.2604  0.1032
16561PP      PP26665   1.016   1.619  11.027  0.1870 -0.0296 -0.3564
16562PP      PP26666   0.870   9.492  10.605 -0.1259  0.1516  0.2284
16563PP      PP26667   7.116   8.317   3.387 -0.1666 -0.2360  0.0029
16564PP      PP26668   6.828  15.032  10.594  0.2092  0.1158 -0.2833
16565PP      PP26669   3.111  11.771  11.224  0.3766 -0.1687 -0.1589
16566PP      PP26670   1.889  14.619  10.388  0.1227  0.1347 -0.2103
16567PP      PP26671   2.240   7.238   8.910 -0.2395  0.3494 -0.0131
16568PP      PP26672   1.407  13.056   9.869  0.1755  0.0352 -0.0083
16569PP      PP26673  14.283   0.328   4.173 -0.1498 -0.1458  0.1789
16570PP      PP26674   3.978  11.906   9.682  0.3055  0.0073  0.1211
16571PP      PP26675   0.439  10.976  10.975  0.1351 -0.2619  0.0149
16572PP      PP26676   7.528   6.325   9.160 -0.2604 -0.1954 -0.2510
16573PP      PP26677   1.061   2.064   1.488  0.0566  0.3825 -0.2072
16574PP      PP26678   7.183  13.488   2.582  0.3920 -0.0845  0.2316
16575PP      PP26679   5.668  12.307   2.175  0.0599  0.0256 -0.3266
16576PP      PP26680   9.968   1.873   5.472 -0.1837 -0.1227  0.0444
16577PP      PP26681  14.509   8.639  12.920 -0.1278 -0.0268 -0.2752
16578PP      PP26682   5.322   8.013  13.506  0.1521 -0.0126  0.2854
16579PP      PP26683   1.525   7.071   8.624  0.0217 -0.0355  0.0610
16580PP      PP26684   5.969   9.780   1.527 -0.1311  0.0519 -0.1420
16581PP      PP26685  10.001   7.691   1.899  0.2623 -0.1376 -0.0070
16582PP      PP26686   5.673  10.040  13.384  0.1024  0.0684  0.1882
16583PP      PP26687  13.607   3.607  11.020  0.0239  0.2684  0.1848
16584PP      PP26688   5.995   8.822   3.332  0.2686 -0.1332  0.1369
16585PP      PP26689  14.253  13.730  10.871  0.0549 -0.0915 -0.0117
16586PP      PP26690   5.931   5.364   0.987  0.0881 -0.3418 -0.2020
16587PP      PP26691   0.329   5.154   0.240 -0.1221  0.0668  0.2259
16588PP      PP26692   9.458  15.244   9.664 -0.2175 -0.1037  0.0696
16589PP      PP26693   4.366   4.818  13.173  0.1470  0.0681 -0.0345
16590PP      PP26694  15.787  11.546   2.575  0.0237 -0.0367  0.1105
16591PP      PP26695  10.288   8.028  12.537 -0.1173 -0.2683  0.1927
16592PP      PP26696   0.550   3.988  10.344  0.2289 -0.0079  0.0171
16593PP      PP26697  11.229  10.145   8.807  0.1733 -0.3061  0.1652
16594PP      PP26698   5.771   4.932   1.700  0.0044  0.0073 -0.3308
16595PP      PP26699  10.378   8.079  11.012  0.4038 -0.0305  0.1214
16596PP      PP26700   7.128  13.348   3.217 -0.1717  0.0199 -0.1600
16597PP      PP26701   9.260   3.020  13.238  0.1151  0.1235 -0.0054
16598PP      PP26702   0.572  11.908  12.875 -0.0003 -0.2224 -0.1434
16599PP      PP26703   3.296  11.405   3.523 -0.0257 -0.2276 -0.0661
16600PP      PP26704   1.094   4.594  11.350 -0.0524 -0.2842  0.1239
16601PP      PP26705   9.843   1.244   1.226  0.1022  0.0086  0.2492
16602PP      PP26706  10.651  12.310   9.247  0.1642 -0.1091  0.2315
16603PP      PP26707   2.036   3.031  10.995  0.1596 -0.0807 -0.1386
16604PP      PP26708   6.825   5.956   1.292  0.0877  0.0036 -0.3056
16605PP      PP26709   5.607  11.284   4.081  0.0639  0.0941  0.2957
16606PP      PP26710  13.682  13.813   1.455  0.0908 -0.3364 -0.0978
16607PP      PP26711   6.642  15.014  11.398 -0.4992 -0.2092  0.0032
16608PP      PP26712   4.876  11.276  11.695 -0.1200  0.3552  0.2434
16609PP      PP26713   5.083   5.121   1.113 -0.0987 -0.1414 -0.1382
16610PP      PP26714   2.628   8.141  12.961 -0.2067 -0.1003 -0.0160
16611PP      PP26715   0.972   0.383  12.580  0.0003 -0.1008 -0.3490
16612PP      PP26716   7.500   6.621   3.716  0.0351 -0.0645  0.1958
16613PP      PP26717  12.307   4.917   9.003 -0.0540  0.1445 -0.1661
16614PP      PP26718  15.505  13.880  11.898 -0.2917 -0.1306  0.3765
16615PP      PP26719  13.958  14.152   2.182  0.1150 -0.4790 -0.0040
16616PP      PP26720   4.442  15.277   2.691 -0.1288 -0.1336  0.1328
16617PP      PP26721   9.208  11.053   0.376  0.3357  0.0416 -0.1305
16618PP      PP26722   0.283  11.072   0.813 -0.1329  0.0338  0.0437
16619PP      PP26723   2.416   5.200   0.902  0.0132  0.1704 -0.1018
16620PP      PP26724   6.143   6.439   9.413  0.1232  0.1886 -0.2293
16621PP      PP26725   7.476  14.592   1.741 -0.3761 -0.0469  0.1710
16622PP      PP26726   1.094  13.005   1.969  0.1130 -0.0230  0.1279
16623PP      PP26727   2.161  10.249  11.793 -0.1797 -0.0741  0.0228
16624PP      PP26728   3.779  15.633   0.394 -0.1833 -0.0180 -0.0793
16625PP      PP26729   5.216  13.742  12.894 -0.1898  0.1583 -0.2070
16626PP      PP26730   4.636  14.951  12.597 -0.2734  0.1250  0.2979
16627PP      PP26731   9.511  11.516   0.842  0.1633 -0.0187 -0.2110
16628PP      PP26732  13.149  14.449   2.138 -0.1044  0.0006 -0.4104
16629PP      PP26733   5.533  13.962   1.715  0.1385  0.0723 -0.2809
16630PP      PP26734   8.128   8.896   9.908  0.2011  0.0335  0.2875
16631PP      PP26735   3.134   1.896  10.314 -0.0509  0.2473 -0.0212
16632PP      PP26736  10.741   4.666  10.406 -0.1860  0.1663 -0.0786
16633PP      PP26737   9.578   7.594   3.096  0.1127  0.1140  0.0350
16634PP      PP26738  12.363   7.570   8.849 -0.0253  0.0657 -0.2110
16635PP      PP26739  10.258   8.242   9.394  0.0180  0.0029  0.1765
16636PP      PP26740  11.882   1.654  10.016 -0.0077  0.0833  0.0224
16637PP      PP26741   9.293   9.340  10.215 -0.0350  0.0309 -0.0331
16638PP      PP26742   6.060   1.120   9.946  0.3009 -0.4145  0.0005
16639PP      PP26743  10.700   9.040   8.479 -0.0425 -0.2705  0.3966
16640PP      PP26744   8.147  11.122  10.189  0.1422  0.1600  0.1871
16641PP      PP26745   8.891   9.072  12.297 -0.1307  0.2984  0.1421
16642PP      PP26746   0.911   8.308   9.088 -0.0554  0.0081 -0.0816
16643PP      PP26747  10.463   8.211  12.114  0.1938  0.0825  0.5466
16644PP      PP26748  10.529   6.640  11.489  0.0117 -0.1172 -0.1155
16645PP      PP26749  12.858   8.132  10.832  0.0437 -0.1195 -0.1205
16646PP      PP26750   7.567   7.664   0.392  0.1061  0.0753 -0.1834
16647PP      PP26751   1.391   7.588   1.033 -0.0512 -0.0974 -0.1776
16648PP      PP26752   9.026   9.386  10.714  0.1345 -0.0492 -0.2841
16649PP      PP26753  13.814   3.129   2.158  0.1758  0.1499 -0.2593
16650PP      PP26754   4.858  14.541   1.819 -0.3838  0.1285 -0.1153
16651PP      PP26755   1.237  10.676   9.890  0.0343  0.1452  0.3231
16652PP      PP26756   9.217   6.244  11.000  0.1521  0.0304 -0.2744
16653PP      PP26757   2.954   0.976   4.126 -0.1297  0.0912 -0.2503
16654PP      PP26758  11.729  13.619  10.154 -0.0784 -0.1430 -0.1202
16655PP      PP26759  12.639   0.643  12.146  0.3392  0.0118  0.1041
16656PP      PP26760  11.699  13.114   1.562  0.3085  0.1340  0.0546
16657PP      PP26761   7.443   5.076   1.261  0.2327 -0.0809 -0.0180
16658PP      PP26762   2.419   1.322   2.414 -0.0520  0.0486  0.0811
16659PP      PP26763   2.749  13.102   3.559 -0.3337 -0.1068  0.0889
16660PP      PP26764  14.018   8.500  11.040 -0.2007  0.1338  0.3257
16661PP      PP26765   1.816   4.434  13.279  0.0615 -0.1492  0.4610
16662PP      PP26766   9.377   7.344   0.441 -0.1700 -0.2710 -0.2316
16663PP      PP26767  12.719   2.267   2.416 -0.2564  0.0083 -0.2291
16664PP      PP26768  12.544   0.283   2.829  0.1662 -0.1099  0.0836
16665PP      PP26769   1.169   1.813   9.976 -0.0836  0.0374 -0.0338
16666PP      PP26770   5.923  14.855  10.748  0.0806 -0.2211  0.2079
16667PP      PP26771  11.750  15.533   5.123 -0.2377 -0.0921  0.1353
16668PP      PP26772   4.148  10.348  11.471 -0.1047 -0.0522  0.2056
16669PP      PP26773  15.190  10.703   0.432 -0.0697  0.3418 -0.2275
16670PP      PP26774   7.155   8.287   3.883 -0.1655 -0.0246 -0.2985
16671PP      PP26775   5.152  11.084   3.694  0.3478 -0.1780 -0.0678
16672PP      PP26776  10.089   8.256   9.843  0.1473 -0.0715 -0.0754
16673PP      PP26777  10.789  11.510  13.066 -0.2433  0.2785  0.1942
16674PP      PP26778   3.747   2.468   4.909  0.1099  0.2897  0.1876
16675PP      PP26779  13.857  14.526   2.579 -0.1120  0.2635  0.0784
16676PP      PP26780   9.088   4.574  10.356 -0.3167  0.2283 -0.2223
16677PP      PP26781  14.850   3.201   1.696  0.1212  0.0408  0.2104
16678PP      PP26782  14.236   4.289  10.451  0.1394  0.1100 -0.1533
16679PP      PP26783  11.479  15.551   4.250 -0.3312  0.2939 -0.1276
16680PP      PP26784   0.428  10.861   3.489 -0.0508 -0.0237 -0.0100
16681PP      PP26785   0.243   4.712  11.383  0.3912  0.0318  0.2531
16682PP      PP26786  11.966  15.110  10.849  0.2674 -0.0994 -0.0558
16683PP      PP26787   7.896  12.729   3.157 -0.0514  0.1222 -0.2061
16684PP      PP26788   1.112   8.023   3.908 -0.2532 -0.1161 -0.2181
16685PP      PP26789   8.201   3.148  11.419 -0.2888 -0.0073 -0.0509
16686PP      PP26790   4.942  11.206   4.220  0.1869  0.0539  0.2163
16687PP      PP26791   1.997   0.052  10.816  0.1485  0.0197 -0.0872
16688PP      PP26792  11.399   9.758   9.217  0.0794 -0.0459  0.1694
16689PP      PP26793   4.572   4.629   2.055  0.0527  0.2982 -0.0557
16690PP      PP26794  15.327   8.648   2.577  0.1788 -0.3446  0.2914
16691PP      PP26795  11.044   1.940  13.407 -0.3372 -0.0897 -0.1762
16692PP      PP26796  12.455  12.218   9.369 -0.1147 -0.1128  0.3598
16693PP      PP26797  13.329  10.407   9.291  0.1733  0.1388 -0.1931
16694PP      PP26798   9.375  15.557   4.133  0.0186  0.3656 -0.3204
16695PP      PP26799   7.881   8.099   0.686  0.0541  0.2779 -0.0887
16696PP      PP26800   7.206  13.619  10.196 -0.2191  0.0137 -0.3296
16697PP      PP26801   7.732   1.820   0.197  0.0774 -0.1154 -0.1671
16698PP      PP26802  11.199   7.860  12.005 -0.3111  0.0273  0.0122
16699PP      PP26803  14.646   3.648  13.428 -0.0981  0.0228  0.1775
16700PP      PP26804   4.258  15.020  12.366  0.4784 -0.0243 -0.0103
16701PP      PP26805   5.750   5.549   1.998  0.0324  0.2071 -0.0610
16702PP      PP26806   0.685   8.797   0.087 -0.2205 -0.0387  0.1809
16703PP      PP26807   1.168  15.615  10.472 -0.3891 -0.1332  0.2128
16704PP      PP26808   0.754   5.605  11.413 -0.0934 -0.0658  0.0747
16705PP      PP26809   7.800   7.210   3.307  0.0175 -0.0061  0.1893
16706PP      PP26810  10.294   5.200  10.633  0.3043 -0.0588  0.0454
16707PP      PP26811   8.233   7.183  11.114 -0.0551  0.0883 -0.1999
16708PP      PP26812   9.790   9.243  10.351 -0.0121 -0.4692 -0.1218
16709PP      PP26813   0.749  12.355   9.905  0.0038  0.0788 -0.0150
16710PP      PP26814   7.562   9.006  12.998 -0.3280  0.0809 -0.0601
16711PP      PP26815   7.704   4.656   0.906  0.2467  0.1663  0.1731
16712PP      PP26816   4.791  12.832  10.087 -0.2836 -0.0769 -0.0551
16713PP      PP26817   0.806   1.299  10.520  0.1130  0.0253 -0.0500
16714PP      PP26818   1.468   1.240  12.763 -0.1105 -0.3208  0.2285
16715PP      PP26819   4.232   2.587  10.338  0.1041 -0.5522  0.1458
16716PP      PP26820  15.283   7.098  12.916 -0.3166  0.1397  0.0116
16717PP      PP26821   6.505  10.644  10.647  0.0782 -0.3510 -0.2440
16718PP      PP26822   4.419   1.654   3.951 -0.3442 -0.0925  0.1868
16719PP      PP26823  15.333  12.527   1.466 -0.1426 -0.0723 -0.0503
16720PP      PP26824   4.023  11.569   1.243  0.0216  0.0559 -0.0058
16721PP      PP26825   1.201  12.395  10.314 -0.1303  0.1047  0.3507
16722PP      PP26826   7.907   4.183   2.996  0.0517  0.0273 -0.1219
16723PP      PP26827   1.241   9.157   3.177  0.1346  0.0987  0.3438
16724PP      PP26828  12.752   6.547   3.078  0.1914 -0.0364 -0.2489
16725PP      PP26829   8.150   2.150   9.809 -0.0985 -0.0948  0.1447
16726PP      PP26830   8.187   3.345   9.978 -0.1234  0.1639  0.1019
16727PP      PP26831   1.223  10.883   3.829  0.1010  0.1397 -0.1555
16728PP      PP26832   3.245  11.379  12.874 -0.0711 -0.1445 -0.0627
16729PP      PP26833   5.868   0.658  11.755  0.2126  0.2601 -0.0434
16730PP      PP26834   3.602   4.361   9.725  0.2398  0.1112  0.0459
16731PP      PP26835   4.689   0.793   0.024  0.2199  0.2383  0.0440
16732PP      PP26836   1.268  12.014  11.179 -0.0732 -0.0073 -0.0604
16733PP      PP26837  13.490   7.071  10.171  0.0125  0.1144 -0.0087
16734PP      PP26838   8.008   4.354  13.483  0.0521 -0.2513 -0.3775
16735PP      PP26839  12.982   0.997   0.579 -0.0044  0.1963 -0.0888
16736PP      PP26840   0.676   9.217   2.066  0.0912 -0.0125  0.0090
16737PP      PP26841   2.948  15.757   2.180 -0.3064  0.0690 -0.0902
16738PP      PP26842   6.711   1.109  11.161 -0.1685  0.2571 -0.1268
16739PP      PP26843   4.305  10.579  10.906 -0.4050  0.3569  0.3122
16740PP      PP26844   5.130   7.536   2.830 -0.0789  0.2002  0.0894
16741PP      PP26845  13.960   6.434   0.008  0.2618  0.0316 -0.0513
16742PP      PP26846   5.398   8.716   8.937  0.2594  0.0960  0.0252
16743PP      PP26847   1.864   4.935   0.651 -0.0183 -0.0209 -0.1547
16744PP      PP26848  11.337   2.497  11.632  0.1560 -0.2119 -0.0463
16745PP      PP26849   6.741  14.276   1.101  0.0295 -0.0340 -0.0633
16746PP      PP26850  11.869  10.906   2.652  0.2827 -0.1033  0.0758
16747PP      PP26851   0.094   3.339   0.385 -0.2523  0.3448 -0.2194
16748PP      PP26852   5.048   4.053  11.115  0.2643 -0.0266  0.0552
16749PP      PP26853   6.652  13.946   4.124  0.1128 -0.1166 -0.2672
16750PP      PP26854  14.385  10.880  11.993  0.0264 -0.1277 -0.1188
16751PP      PP26855  10.742  14.266   1.776 -0.0164  0.0345  0.0955
16752PP      PP26856  14.571   7.288  12.926 -0.1446 -0.0530 -0.1749
16753PP      PP26857   9.091  12.790   4.022  0.0739 -0.0960 -0.0763
16754PP      PP26858  13.058  11.409   3.149  0.0841 -0.0192  0.3990
16755PP      PP26859   1.607   1.864  11.705 -0.0944 -0.0796  0.1280
16756PP      PP26860   7.100  10.356   1.996 -0.1202  0.0102  0.0119
16757PP      PP26861   3.972  13.716  13.475  0.0593  0.1623  0.0058
16758PP      PP26862   3.140   5.318   1.655  0.0046  0.2057 -0.3212
16759PP      PP26863  13.187   9.828  10.797  0.0814  0.0814  0.0407
16760PP      PP26864  11.767   7.999   3.717 -0.1062 -0.0860 -0.1137
16761PP      PP26865   9.939   7.454   0.040  0.0781  0.0148  0.1734
16762PP      PP26866   6.096   2.813  12.458 -0.2745 -0.1780 -0.1550
16763PP      PP26867  12.440  11.226   8.944 -0.2367 -0.0532  0.0866
16764PP      PP26868  12.729  15.318   3.213  0.1023 -0.1067  0.0198
16765PP      PP26869   0.797   4.079  11.663 -0.0060  0.2104 -0.0228
16766PP      PP26870  11.209  10.909   9.318 -0.1878 -0.0705 -0.2958
16767PP      PP26871   6.558   2.243  12.612  0.3867  0.0092 -0.4858
16768PP      PP26872   8.927  10.042   8.803 -0.2347 -0.2041 -0.1577
16769PP      PP26873  14.064   9.003  12.483 -0.2911 -0.2082  0.2656
16770PP      PP26874  13.189  10.059  12.635  0.1910 -0.0462  0.1677
16771PP      PP26875  12.480  11.632   2.408  0.2174 -0.1122 -0.1436
16772PP      PP26876   4.266   1.244   9.323 -0.0974  0.0760  0.0311
16773PP      PP26877   7.088   9.346  12.258  0.0743 -0.0303  0.0318
16774PP      PP26878   0.505  13.232  12.319 -0.0319  0.1383  0.0496
16775PP      PP26879  14.187   7.594  13.160  0.2842  0.0926 -0.1756
16776PP      PP26880  12.929  14.581  11.177  0.1651 -0.1136  0.1378
16777PP      PP26881  11.994  14.891   0.955 -0.0476  0.3422 -0.2581
16778PP      PP26882   1.639   1.363   1.297  0.3924  0.2483 -0.1240
16779PP      PP26883  12.498   9.351   0.410  0.0506  0.1212  0.1858
16780PP      PP26884  11.715  13.541  12.227 -0.3204  0.0249 -0.1579
16781PP      PP26885  11.774  13.419  10.614 -0.5789 -0.0029 -0.1359
16782PP      PP26886   5.757  12.327  11.691 -0.0354 -0.0309  0.2323
16783PP      PP26887   0.862   9.034  12.491 -0.1975 -0.3634 -0.1869
16784PP      PP26888   2.736  11.642   9.122 -0.1078  0.2467 -0.1463
16785PP      PP26889  14.685  15.069   1.782 -0.2006  0.0510 -0.1168
16786PP      PP26890  12.382   5.338   0.422 -0.3375 -0.2739 -0.2183
16787PP      PP26891  11.624   0.372   9.672 -0.2174  0.1797 -0.0545
16788PP      PP26892  11.328   3.361  10.451 -0.3491 -0.2174  0.2291
16789PP      PP26893  11.697   0.455   1.750  0.1589 -0.0991 -0.0714
16790PP      PP26894  12.582   5.747   7.846  0.1405  0.0290  0.1493
16791PP      PP26895   3.885  11.178   2.777  0.3963  0.3380  0.0345
16792PP      PP26896   1.450   9.390  12.068  0.0402 -0.2105  0.2066
16793PP      PP26897   0.370  14.747   0.520 -0.0219 -0.2051 -0.0074
16794PP      PP26898   4.276   7.526   4.644 -0.0957  0.0802  0.1563
16795PP      PP26899   4.085   7.263  11.805  0.0743  0.0189 -0.0102
16796PP      PP26900  13.668   5.721   1.154  0.1527 -0.1484  0.0641
16797PP      PP26901   8.021   7.306   9.395  0.4187  0.0459  0.1130
16798PP      PP26902   2.789   9.316   3.981  0.1537 -0.1448  0.0397
16799PP      PP26903  11.893   3.474   1.260 -0.0107  0.1116 -0.3250
16800PP      PP26904  13.465  12.434   5.072  0.4482 -0.0366  0.0367
16801PP      PP26905   7.459  14.099   3.245  0.3511 -0.0910 -0.0130
16802PP      PP26906  13.933   4.266   2.417 -0.3564  0.0863  0.4124
16803PP      PP26907   1.469   5.071   3.098 -0.1463  0.3636  0.0543
16804PP      PP26908   5.639   4.934   9.432  0.0354  0.1438 -0.1743
16805PP      PP26909  13.182  14.061   3.310  0.3618  0.2611  0.0641
16806PP      PP26910  14.658  14.106   1.694 -0.0508  0.0245 -0.1213
16807PP      PP26911  10.584   9.319  10.505  0.1180 -0.0828  0.1661
16808PP      PP26912  10.770  11.451   1.357 -0.2076  0.0976 -0.0064
16809PP      PP26913   4.007  12.244   1.068 -0.1595  0.4723 -0.0409
16810PP      PP26914  10.678  11.546   0.828  0.4360 -0.0329  0.0245
16811PP      PP26915   3.544   6.819  10.662 -0.1833 -0.0908  0.0037
16812PP      PP26916  15.429   4.638  12.088 -0.0151 -0.3027 -0.1320
16813PP      PP26917   0.984  14.260   0.302 -0.2798  0.0285 -0.1296
16814PP      PP26918   9.646   1.609   5.850  0.0185 -0.2177 -0.2560
16815PP      PP26919   3.729   0.885  12.492  0.0071 -0.3302  0.0605
16816PP      PP26920  15.794   9.253   1.638 -0.1303 -0.0793  0.0734
16817PP      PP26921   8.175   9.638  10.455 -0.0432 -0.2639 -0.1507
16818PP      PP26922  11.564  11.033  10.869  0.0274 -0.0961  0.2318
16819PP      PP26923  11.850  13.695   2.470 -0.1170 -0.1957  0.0359
16820PP      PP26924  11.265  14.680   1.241  0.0468 -0.3188 -0.1942
16821PP      PP26925   8.166  12.822   1.272 -0.2540  0.2905  0.0677
16822PP      PP26926   4.734   6.370  11.129 -0.0765  0.1669 -0.0179
16823PP      PP26927   6.262  13.710  11.469 -0.1326  0.2054 -0.0546
16824PP      PP26928   7.066  14.701   9.395  0.1064 -0.0564  0.1041
16825PP      PP26929  10.868  13.505   3.435  0.1500  0.1620 -0.0814
16826PP      PP26930  14.934   9.644   4.083  0.2284 -0.2883 -0.2761
16827PP      PP26931   2.151   2.163   9.405 -0.0055  0.2022  0.2701
16828PP      PP26932   3.972  11.130   0.347 -0.3881  0.1935  0.3466
16829PP      PP26933   7.989   5.778  13.532  0.2559  0.0063  0.1438
16830PP      PP26934   8.240   0.169   3.704  0.1504 -0.1022 -0.2250
16831PP      PP26935  14.451   3.860   7.987  0.1427 -0.2602  0.1566
16832PP      PP26936   3.094  15.671   1.633  0.1954 -0.1163 -0.0280
16833PP      PP26937  10.140   6.062  12.755  0.0866  0.0127 -0.2102
16834PP      PP26938  11.776  10.182  11.331  0.1149 -0.1041 -0.0187
16835PP      PP26939  15.064   8.004   1.956  0.1629  0.1941 -0.0487
16836PP      PP26940  14.331  14.624  10.619 -0.2006 -0.1346  0.2062
16837PP      PP26941   7.099   0.187   1.172 -0.1663  0.2109 -0.1737
16838PP      PP26942   1.554   8.918   4.485  0.1820 -0.1460 -0.2553
16839PP      PP26943  15.005  11.896  13.233  0.2971 -0.1040 -0.0204
16840PP      PP26944   2.168  14.614   2.210  0.1893  0.0300  0.0364
16841PP      PP26945   3.286   8.157  10.932 -0.0903 -0.0136 -0.0029
16842PP      PP26946   2.093   2.714   2.272  0.0408 -0.3328 -0.3000
16843PP      PP26947  14.144  12.159   3.283  0.2156  0.2040 -0.1093
16844PP      PP26948   8.297  14.165   9.059  0.0285  0.0039  0.3848
16845PP      PP26949   9.187  13.509   3.254  0.0197 -0.2589  0.2673
16846PP      PP26950   6.693   7.039  13.215 -0.2105  0.0019 -0.1537
16847PP      PP26951   0.787  11.810  13.335  0.3130 -0.0260 -0.0030
16848PP      PP26952  13.858   2.635   1.821 -0.1122  0.1721 -0.0312
16849PP      PP26953   3.943   0.194   0.639 -0.2005 -0.2099 -0.1240
16850PP      PP26954  12.726   3.633   2.618  0.0139  0.2306 -0.1258
16851PP      PP26955   7.950   2.519   3.353  0.0768  0.0727  0.0445
16852PP      PP26956   1.935   6.175   8.737 -0.2304  0.3348 -0.0330
16853PP      PP26957  15.278   0.686   4.576 -0.1506  0.1690 -0.1516
16854PP      PP26958  12.405   0.073   2.194  0.4219 -0.1218 -0.1056
16855PP      PP26959   6.660   0.252  11.443  0.0049  0.1684 -0.5473
16856PP      PP26960  14.870   7.579   8.544 -0.2474 -0.0604 -0.1348
16857PP      PP26961   5.528  15.753   3.634 -0.1814 -0.1675 -0.3647
16858PP      PP26962   7.308   6.437  10.231 -0.2218 -0.0460 -0.1279
16859PP      PP26963  15.357   1.523   2.531 -0.0890 -0.1579 -0.3838
16860PP      PP26964   1.964   8.609   0.710 -0.4229 -0.0041  0.1034
16861PP      PP26965  11.052  12.162  10.720  0.0476  0.0071 -0.2911
16862PP      PP26966  14.393   6.336   9.725 -0.2192 -0.0512 -0.0718
16863PP      PP26967   3.438  10.867  11.255  0.1041 -0.0194  0.3817
16864PP      PP26968  15.836   8.362  10.086 -0.1863 -0.1813 -0.1302
16865PP      PP26969  10.277   8.575  11.835 -0.0115  0.1817  0.1036
16866PP      PP26970   7.649   5.116   8.369  0.1278  0.1266  0.0800
16867PP      PP26971  14.365  15.049   3.034  0.1555 -0.2946 -0.1004
16868PP      PP26972  12.325   4.612   2.174  0.1259 -0.0125 -0.0345
16869PP      PP26973   1.832  12.707   4.249  0.0456 -0.1250  0.3357
16870PP      PP26974   6.424   5.662   2.611 -0.1893 -0.0243  0.2254
16871PP      PP26975   2.010   9.502  13.408 -0.0563  0.0637  0.0581
16872PP      PP26976  11.954  11.661  12.552 -0.2136  0.2549  0.1289
16873PP      PP26977   8.509   9.566   8.893  0.2036  0.2770 -0.1431
16874PP      PP26978   9.285  15.216   3.109 -0.0315  0.0254 -0.1182
16875PP      PP26979   1.577  12.383   3.833  0.0129 -0.1777  0.0500
16876PP      PP26980  10.460   8.886  10.478  0.0936  0.2246 -0.0835
16877PP      PP26981   3.211  13.718  11.259  0.0191 -0.0599  0.1530
16878PP      PP26982   8.258  12.868   2.402 -0.2855 -0.1955 -0.0668
16879PP      PP26983  14.554  13.231   2.415 -0.3131  0.1325 -0.0115
16880PP      PP26984   6.153   2.304   0.868 -0.0806 -0.0520  0.1327
16881PP      PP26985   9.929  10.894  10.441 -0.1483 -0.1414 -0.1919
16882PP      PP26986  11.360  12.674   1.929 -0.1072 -0.5526  0.1012
16883PP      PP26987  10.589   5.601   9.915 -0.0951 -0.0940 -0.1238
16884PP      PP26988  13.486   2.803   1.560 -0.1512 -0.1465  0.2267
16885PP      PP26989   8.399  10.358   3.386 -0.1970 -0.1469  0.3594
16886PP      PP26990  14.315  15.268   2.032  0.1173 -0.0002 -0.2251
16887PP      PP26991  12.132  15.574  10.575  0.1564 -0.1292 -0.0591
16888PP      PP26992  15.399   8.793  13.461 -0.3386  0.2396  0.3591
16889PP      PP26993   0.486  15.275  10.879  0.1369  0.2560 -0.1038
16890PP      PP26994   7.019   4.207   2.916 -0.1013 -0.3011  0.3089
16891PP      PP26995  12.417   5.814   0.676 -0.0916 -0.0475  0.0272
16892PP      PP26996   0.334   4.210   9.325  0.3740  0.0400 -0.0144
16893PP      PP26997   8.594  11.462  12.960 -0.0176 -0.0851  0.0338
16894PP      PP26998  14.236  12.449   2.808 -0.0844  0.3008  0.1327
16895PP      PP26999  12.965  11.742  10.852  0.0758  0.1791 -0.1960
16896PP      PP27000   0.498   0.675   3.100 -0.0829 -0.2564 -0.3729
16897PP      PP27001   1.272   2.619   3.695  0.0223 -0.0894 -0.0025
16898PP      PP27002  12.724   6.558   1.650 -0.0776 -0.1121 -0.1198
16899PP      PP27003  13.136   5.679   7.964 -0.2623  0.0406 -0.1180
16900PP      PP27004  10.239  11.404   9.696 -0.1374  0.2098  0.0567
16901PP      PP27005  12.598   8.356   0.115 -0.2839  0.1342  0.0086
16902PP      PP27006  13.494  15.517  10.314  0.0943  0.0615 -0.0170
16903PP      PP27007   6.431   5.874  12.548  0.0348 -0.2961 -0.2435
16904PP      PP27008   4.162   3.410   0.317 -0.0177  0.1254 -0.1808
16905PP      PP27009   6.851  11.148   9.541 -0.1996 -0.2104 -0.0509
16906PP      PP27010  14.308  14.408   4.197 -0.0271 -0.4667 -0.0627
16907PP      PP27011   7.324  11.698  12.207  0.1489 -0.2886 -0.1507
16908PP      PP27012   2.735   2.907   4.018 -0.0214 -0.3843 -0.1749
16909PP      PP27013  14.079   1.035   2.699  0.2810  0.1453  0.0018
16910PP      PP27014  15.565  14.981  12.577  0.0469  0.0473 -0.0241
16911PP      PP27015  12.945   7.995   2.399 -0.1999 -0.0710  0.1208
16912PP      PP27016  12.578   4.452  13.513  0.0182 -0.1668  0.3121
16913PP      PP27017  15.336  11.046   4.247  0.0607  0.0247  0.0730
16914PP      PP27018   1.572   3.832  11.338 -0.0541 -0.0792 -0.1431
16915PP      PP27019   4.451   1.897  13.003 -0.0818  0.3292  0.0979
16916PP      PP27020  12.652  14.100  11.724 -0.1373 -0.1637 -0.5490
16917PP      PP27021   7.959   0.393   0.926  0.1791  0.0372 -0.2153
16918PP      PP27022   0.037   7.955   3.154 -0.1526 -0.3008  0.2882
16919PP      PP27023   2.815   0.236   1.207 -0.2308 -0.0337 -0.1083
16920PP      PP27024   5.999  14.233   3.270 -0.2348 -0.1175 -0.2992
16921PP      PP27025   2.052  12.502   1.502  0.1273 -0.2534 -0.1813
16922PP      PP27026   8.578   4.524  10.389  0.1118  0.0425 -0.0687
16923PP      PP27027   5.809  11.655   4.336 -0.0703  0.0985 -0.1718
16924PP      PP27028   2.513   3.625   1.531  0.0273  0.1792 -0.0337
16925PP      PP27029   1.807   1.452  10.428  0.0750 -0.0702  0.1938
16926PP      PP27030   0.060   0.177   3.627  0.0946 -0.3703 -0.0527
16927PP      PP27031   9.733   5.983  13.429 -0.0626  0.2225 -0.0192
16928PP      PP27032  10.308  12.442  13.336 -0.1739  0.1070 -0.2590
16929PP      PP27033  10.607   9.171   1.876  0.2122 -0.0068 -0.1884
16930PP      PP27034   6.473  10.772  12.071 -0.0435  0.2288 -0.1424
16931PP      PP27035   3.361  10.766   2.914 -0.3043 -0.1435 -0.2357
16932PP      PP27036   7.868   3.550  11.546 -0.2662  0.0046  0.0463
16933PP      PP27037  10.635  14.112   2.275 -0.0217  0.2977 -0.4899
16934PP      PP27038   2.978  10.839  11.446 -0.1817 -0.1471  0.0432
16935PP      PP27039   4.570   7.487   9.355  0.1403  0.2680  0.0397
16936PP      PP27040   2.153  15.395  13.405 -0.2305 -0.1068 -0.0156
16937PP      PP27041   3.112   9.361   0.284 -0.1724  0.0425 -0.1643
16938PP      PP27042   2.827  11.399   1.769  0.0489 -0.2806 -0.0371
16939PP      PP27043  15.871  11.586  10.315  0.3237  0.4413  0.1711
16940PP      PP27044   8.943  12.070  11.732  0.0889  0.2236 -0.3643
16941PP      PP27045  14.847  11.153  12.776  0.3254  0.1297  0.0962
16942PP      PP27046  14.018  14.048   9.389  0.1412  0.0469 -0.2211
16943PP      PP27047   0.448  13.287   9.600  0.0921  0.1795  0.1157
16944PP      PP27048  15.538  13.681  13.051 -0.1866 -0.2250 -0.0832
16945PP      PP27049   2.493  15.077   3.546 -0.2644 -0.2099  0.0144
16946PP      PP27050   3.748  13.939   9.469  0.0088  0.0420  0.0818
16947PP      PP27051   2.086   9.364  11.885 -0.0389  0.0508  0.0729
16948PP      PP27052   5.644   0.397  12.618 -0.2194  0.0900 -0.1582
16949PP      PP27053  15.187   0.939  12.835 -0.1835 -0.0668  0.1057
16950PP      PP27054  13.422   5.696  13.315  0.1127  0.2419  0.0041
16951PP      PP27055  13.075  12.158   3.194 -0.3509  0.2690 -0.1408
16952PP      PP27056   1.221   3.706   0.990 -0.0502 -0.0638 -0.0528
16953PP      PP27057   7.248   4.404   8.450  0.0497 -0.0251 -0.1292
16954PP      PP27058  15.728   3.201   3.605  0.1122  0.1427 -0.1498
16955PP      PP27059   2.273   6.669   4.207  0.1820  0.0726 -0.0667
16956PP      PP27060   3.765   6.356  10.548 -0.0884 -0.1703  0.0960
16957PP      PP27061   9.130   0.136  10.460 -0.0285  0.2324  0.1512
16958PP      PP27062   9.179   4.775   8.315 -0.2046 -0.1295  0.0889
16959PP      PP27063  13.249  10.358   2.169 -0.1643  0.2270  0.0388
16960PP      PP27064   3.483   9.070   3.879  0.3285  0.1783 -0.0297
16961PP      PP27065   2.901   8.930   0.124 -0.0477 -0.1068 -0.1933
16962PP      PP27066  15.210   0.344   9.834  0.3798  0.0427  0.0880
16963PP      PP27067  13.141   6.487   3.462  0.0170 -0.1691 -0.0883
16964PP      PP27068   5.429   7.992  12.465 -0.1795  0.1254  0.1911
16965PP      PP27069   0.326  14.601   4.466  0.2213  0.1591  0.3086
16966PP      PP27070   6.016   8.207   4.030 -0.0267 -0.0720 -0.2716
16967PP      PP27071  14.509   2.104   9.359  0.2111  0.2895 -0.1636
16968PP      PP27072   4.324   9.816   3.127 -0.0142 -0.1370 -0.0995
16969PP      PP27073  12.723  12.294  12.622  0.2319  0.1183 -0.2874
16970PP      PP27074  14.522   3.426   9.464 -0.1433  0.0247 -0.1341
16971PP      PP27075   8.547  11.303   3.732 -0.1754  0.1592  0.3717
16972PP      PP27076  12.204   6.236   2.859 -0.2431  0.0134  0.2583
16973PP      PP27077   6.759   4.755   8.576  0.1075 -0.1017  0.0725
16974PP      PP27078  13.747   0.737  11.962 -0.0941 -0.1971 -0.1185
16975PP      PP27079   8.207  15.179   3.813  0.0658 -0.3069  0.3137
16976PP      PP27080   2.045  10.638  12.061  0.1972 -0.0610 -0.1966
16977PP      PP27081   5.479   9.313   1.914 -0.0508  0.1970  0.3543
16978PP      PP27082   3.906   0.686   4.140  0.0663 -0.1291 -0.0524
16979PP      PP27083   3.342   7.262   0.387 -0.1815  0.2053  0.1765
16980PP      PP27084   4.551  15.737  10.374  0.2055 -0.2138 -0.1684
16981PP      PP27085  10.093  13.036   9.398  0.1032  0.1416 -0.0472
16982PP      PP27086   8.494  10.364   2.320 -0.0417  0.1768  0.1406
16983PP      PP27087   1.584   1.998   4.601 -0.5074  0.0782 -0.1216
16984PP      PP27088   9.481   0.779  11.314 -0.4235 -0.2574 -0.1155
16985PP      PP27089   4.056   8.223   3.620  0.4906  0.2777  0.2442
16986PP      PP27090   3.473   7.238  10.937  0.2014  0.0526 -0.3356
16987PP      PP27091  12.592  10.353   0.613  0.1428  0.3642 -0.2079
16988PP      PP27092   5.618   3.289  12.322  0.1346 -0.2443 -0.0554
16989PP      PP27093  11.479   6.816   0.734  0.2028  0.3433 -0.0866
16990PP      PP27094   4.775   6.053   2.022  0.2213  0.1535  0.2455
16991PP      PP27095   7.189  13.512   1.485  0.1685  0.0022 -0.0868
16992PP      PP27096  15.111   2.744  12.794 -0.1529 -0.1103 -0.1422
16993PP      PP27097   7.511   6.414   1.190  0.2914  0.0858  0.1855
16994PP      PP27098   1.224   2.704  10.750 -0.1765 -0.5321  0.0946
16995PP      PP27099  12.698   8.758   9.271 -0.2435  0.1983 -0.1686
16996PP      PP27100  12.500   1.141   0.874  0.0884  0.1107 -0.1655
16997PP      PP27101   5.680   3.755   1.779 -0.1319  0.2097 -0.1108
16998PP      PP27102  12.929   4.344   9.983  0.1443 -0.0894 -0.2629
16999PP      PP27103   6.453  13.672   9.512 -0.2345 -0.0216  0.3060
17000PP      PP27104  12.245  14.582   1.684  0.4768  0.3032 -0.1230
17001PP      PP27105   1.657   9.870   0.761 -0.1630  0.1968  0.1676
17002PP      PP27106  13.269   3.205   2.194  0.0547  0.0302 -0.0643
17003PP      PP27107  14.067   1.731   8.527 -0.1387 -0.0929  0.0052
17004PP      PP27108  10.461  11.668  11.358  0.1531 -0.1660  0.1140
17005PP      PP27109   2.390  11.066  12.280 -0.2197 -0.2358  0.0133
17006PP      PP27110  15.435  11.588   2.884 -0.0808 -0.1378 -0.2695
17007PP      PP27111  12.315  11.281   9.527  0.0410  0.2583 -0.3235
17008PP      PP27112   9.902   2.845  13.104 -0.1349 -0.0936 -0.0424
17009PP      PP27113   5.859   5.605  12.715 -0.2343 -0.0187  0.0975
17010PP      PP27114   9.234   0.933   9.663 -0.0268 -0.2317 -0.1393
17011PP      PP27115   9.648  13.470  11.313  0.0466  0.3045  0.1288
17012PP      PP27116  13.583   1.192   1.899 -0.3220  0.1320 -0.2067
17013PP      PP27117   4.625  14.171   0.100  0.2078 -0.2567  0.0795
17014PP      PP27118   9.974   0.644   4.819 -0.2420 -0.0720  0.1177
17015PP      PP27119   6.081   5.933  11.057  0.1503  0.0106  0.1319
17016PP      PP27120   8.249   6.511   8.218 -0.1997 -0.1377  0.2126
17017PP      PP27121   9.445   9.930   0.526  0.2627 -0.1278 -0.2812
17018PP      PP27122   8.726  14.044  11.533 -0.0713 -0.0175  0.0457
17019PP      PP27123  10.889  15.347  11.328 -0.0777  0.0387 -0.2547
17020PP      PP27124  13.685   5.490   9.180 -0.1595  0.0905  0.2493
17021PP      PP27125   9.383   0.020   2.317  0.2263  0.3800 -0.2593
17022PP      PP27126  10.937  13.099  10.954 -0.2229  0.1794 -0.1496
17023PP      PP27127   0.939   1.929   9.217 -0.0942 -0.4178 -0.2095
17024PP      PP27128   6.667  10.897   3.442  0.1470 -0.1465 -0.1030
17025PP      PP27129   6.591   7.175  12.375  0.1253  0.0868 -0.0919
17026PP      PP27130  15.439  11.434  10.611  0.2057  0.1381  0.2851
17027PP      PP27131  10.503   3.927  10.168 -0.0869  0.1616 -0.4162
17028PP      PP27132   7.180  12.011   2.633  0.4026  0.1125 -0.1734
17029PP      PP27133   9.405   7.308   9.610  0.2108 -0.3052  0.3716
17030PP      PP27134   4.121   6.205   1.464  0.0279 -0.0922 -0.0105
17031PP      PP27135  10.467   9.570   4.199 -0.0830 -0.1887 -0.1827
17032PP      PP27136   0.807  15.453   2.572  0.2418  0.2173  0.0163
17033PP      PP27137   6.480   9.459   0.761  0.1465  0.0043 -0.0152
17034PP      PP27138   2.312   9.140  13.191 -0.2409  0.2938  0.0377
17035PP      PP27139   7.763   8.962   8.511  0.0785  0.1835  0.0108
17036PP      PP27140   7.606   8.117   3.222 -0.1100  0.1761 -0.1472
17037PP      PP27141   2.448   8.208   3.732  0.0299  0.3173  0.0568
17038PP      PP27142  11.720  11.171   8.202  0.1654  0.1421 -0.3333
17039PP      PP27143   1.991  13.131   3.451 -0.2606  0.0138  0.0893
17040PP      PP27144   6.628  15.218   3.273  0.1085 -0.2410  0.1152
17041PP      PP27145   0.371  13.898   3.369  0.2595 -0.2628  0.0522
17042PP      PP27146   4.533  10.356   3.729 -0.3341 -0.0874  0.1230
17043PP      PP27147   7.205   8.984  12.652 -0.5198  0.0945  0.1445
17044PP      PP27148  14.146  11.108   3.602 -0.1320  0.2000 -0.1254
17045PP      PP27149  13.638   6.805  10.630  0.0264  0.2086 -0.0934
17046PP      PP27150   8.598  13.228   2.667  0.0799  0.0649  0.1227
17047PP      PP27151   9.488   0.350  10.971 -0.2589 -0.1479  0.0834
17048PP      PP27152  11.276   0.503   2.903  0.2362 -0.0050 -0.1594
17049PP      PP27153   5.156   6.410  10.145 -0.0554  0.0951  0.2357
17050PP      PP27154   8.030  12.247  11.563 -0.1020  0.0581  0.1871
17051PP      PP27155   0.285   6.663  13.189 -0.0424 -0.1238 -0.2853
17052PP      PP27156   0.467   0.414   0.451 -0.0966 -0.0332 -0.3767
17053PP      PP27157   0.611  14.144  13.397 -0.1326 -0.2271 -0.3249
17054PP      PP27158   1.733  13.505   0.769  0.1648  0.0058 -0.0799
17055PP      PP27159   9.305  15.010   1.386  0.4409  0.3251 -0.0974
17056PP      PP27160   0.062   4.021  10.236 -0.0675  0.0900 -0.2027
17057PP      PP27161  14.543   4.996  10.463  0.2042  0.1519  0.1545
17058PP      PP27162  14.189  11.824   0.712  0.0348 -0.0270 -0.1154
17059PP      PP27163   0.779  10.093  11.215 -0.0362 -0.0638  0.2266
17060PP      PP27164  13.887   4.066  13.132 -0.1870  0.0210 -0.0372
17061PP      PP27165  12.011  15.488  11.761 -0.0732  0.0190  0.1894
17062PP      PP27166  14.286   1.621   3.531 -0.1374  0.1235  0.0102
17063PP      PP27167   9.440   0.116   1.310 -0.0609 -0.0447 -0.1408
17064PP      PP27168   5.309  11.202   4.531  0.2120  0.3385 -0.1795
17065PP      PP27169   5.522   7.917   2.362 -0.0591  0.0681  0.1433
17066PP      PP27170   6.487   0.768  12.970 -0.1378  0.2010 -0.2648
17067PP      PP27171   7.861  12.151   2.657  0.0324  0.1460  0.0149
17068PP      PP27172   7.851  13.649  11.129  0.2347  0.1754 -0.2165
17069PP      PP27173  11.192   1.445  11.304  0.0284  0.1571  0.2227
17070PP      PP27174   0.712   8.495  11.779 -0.0342  0.1161 -0.0489
17071PP      PP27175   2.416  12.188   3.504 -0.1200 -0.1932 -0.0327
17072PP      PP27176  13.184  11.857   1.609 -0.2517  0.0687  0.3021
17073PP      PP27177  11.950   5.344   0.790 -0.1124 -0.1613 -0.0883
17074PP      PP27178   5.544  11.523  12.653 -0.2707  0.2378 -0.0983
17075PP      PP27179   4.587  12.741  10.980 -0.0661  0.1207 -0.0172
17076PP      PP27180   6.550  13.528   0.437  0.1931 -0.2630 -0.0478
17077PP      PP27181  14.824  11.750   9.236  0.0905  0.0621 -0.0194
17078PP      PP27182  14.994   9.807   1.912  0.2264  0.1017  0.1440
17079PP      PP27183   0.497   4.190  13.348  0.3390 -0.0031 -0.3037
17080PP      PP27184   3.631  10.364   2.769  0.0516  0.3760  0.1206
17081PP      PP27185   6.906   5.104   1.583  0.1025  0.2052 -0.0781
17082PP      PP27186  14.443   1.281   2.185 -0.0593  0.0581 -0.3292
17083PP      PP27187   6.989   7.491  13.232 -0.2111 -0.5189  0.0265
17084PP      PP27188   0.598   4.247  11.260  0.3536 -0.2605 -0.1184
17085PP      PP27189  13.131   9.029   3.774  0.0066 -0.0440  0.2889
17086PP      PP27190   4.475   3.242  11.320 -0.0827 -0.0126 -0.3609
17087PP      PP27191  15.035   6.743   0.200 -0.2201  0.2932  0.1118
17088PP      PP27192   1.922  14.026  11.227 -0.1894 -0.0430 -0.1418
17089PP      PP27193   4.031   8.773   2.704 -0.0347 -0.0668 -0.0463
17090PP      PP27194   2.802  12.082  12.160  0.0494  0.0016 -0.2228
17091PP      PP27195  12.747  11.953   2.810 -0.0918 -0.3102 -0.0174
17092PP      PP27196  12.355  13.299  12.980  0.0968  0.0623 -0.0402
17093PP      PP27197   4.223   2.088   0.592 -0.0041 -0.2185  0.3497
17094PP      PP27198  11.673   5.725   2.214 -0.0620 -0.0191  0.0306
17095PP      PP27199  14.788  11.130   9.177  0.0562  0.0446 -0.4577
17096PP      PP27200   3.754  14.203   4.069  0.1550  0.1315 -0.0749
17097PP      PP27201  14.949   2.962  11.778  0.1570 -0.0558 -0.2821
17098PP      PP27202  10.015  15.531  12.108  0.4282 -0.3139  0.0955
17099PP      PP27203   6.987   5.282  12.090  0.0056  0.0304 -0.0856
17100PP      PP27204   2.642   7.371   9.891 -0.2322  0.1125  0.0928
17101PP      PP27205  10.728   0.782   1.889  0.1927  0.0802 -0.2759
17102PP      PP27206   1.233  15.728   9.822 -0.0410  0.1347 -0.0994
17103PP      PP27207  11.108   6.967   6.782  0.0803 -0.4077 -0.2011
17104PP      PP27208  13.993   4.755   3.407  0.0620 -0.0268  0.1425
17105PP      PP27209   6.960   9.392   1.921 -0.0211 -0.1562 -0.0379
17106PP      PP27210  11.044   8.608   1.951 -0.4061  0.3992 -0.0717
17107PP      PP27211   0.221  13.645  12.587 -0.3805  0.0065  0.1125
17108PP      PP27212   2.933  15.025  10.241  0.0536  0.0242  0.2052
17109PP      PP27213   2.712   9.210  10.775 -0.1330  0.2015 -0.1558
17110PP      PP27214  12.769  11.428  12.997 -0.1450 -0.0080 -0.1508
17111PP      PP27215   4.479   2.628   9.241 -0.2305  0.1234  0.0164
17112PP      PP27216   0.227   5.858   0.524  0.1428  0.1191  0.3236
17113PP      PP27217   4.884   9.900  12.943  0.0936 -0.3957  0.1701
17114PP      PP27218   1.147   0.750   1.856 -0.0180  0.3298  0.0567
17115PP      PP27219   0.129   7.285   2.747 -0.3538 -0.1707 -0.3376
17116PP      PP27220   9.722  11.465   9.826 -0.2030  0.0325  0.3012
17117PP      PP27221   6.988  12.198   3.140  0.0436 -0.1509  0.0736
17118PP      PP27222   3.138  12.788  11.181 -0.0744 -0.1065 -0.1618
17119PP      PP27223  15.761   2.571   3.221  0.0770 -0.0681 -0.3297
17120PP      PP27224  10.547   7.397  11.795 -0.0763  0.1398  0.0879
17121PP      PP27225   4.445   2.979  10.582  0.0269 -0.1548  0.0977
17122PP      PP27226  14.975   9.787   3.590 -0.1685  0.1243 -0.3148
17123PP      PP27227   8.997   0.427   2.483  0.1797 -0.0101  0.0996
17124PP      PP27228   5.095  13.076   9.747 -0.2127  0.1325 -0.0673
17125PP      PP27229   5.473   0.442   2.511  0.1853  0.0691 -0.2242
17126PP      PP27230   6.537   9.201   1.626  0.0070  0.1767 -0.0078
17127PP      PP27231   1.844   8.474   3.540  0.0544 -0.0755  0.4238
17128PP      PP27232   2.467  14.285   3.766  0.0417  0.0325 -0.2395
17129PP      PP27233  10.983  13.921   1.357 -0.0570  0.0232  0.5157
17130PP      PP27234   0.731   5.384   3.554 -0.1882  0.1044  0.1291
17131PP      PP27235   0.254  10.501   2.550  0.2825  0.0530 -0.1037
17132PP      PP27236   5.274  13.194   1.150  0.1704 -0.0487  0.0552
17133PP      PP27237   3.510  10.235  12.597  0.0015  0.0639 -0.0792
17134PP      PP27238   3.047  10.481   2.029  0.3757 -0.2020 -0.2076
17135PP      PP27239   0.074  11.362   1.271  0.0198  0.0598 -0.1085
17136PP      PP27240   3.397  13.765   9.803  0.0219  0.0221  0.0073
17137PP      PP27241  13.887  10.785  10.521 -0.0350 -0.2146 -0.0132
17138PP      PP27242  15.048  10.288   1.504 -0.1497 -0.1014 -0.0354
17139PP      PP27243  14.057   4.969  10.795  0.2988  0.0052  0.1889
17140PP      PP27244   3.036   5.762   1.900  0.1308 -0.3135 -0.0238
17141PP      PP27245   3.422  13.439  10.685 -0.0062 -0.0742  0.0161
17142PP      PP27246   1.636   5.087  12.764  0.2948  0.0112  0.0023
17143PP      PP27247  13.825  15.419   1.749  0.1114 -0.1108 -0.0638
17144PP      PP27248   2.401   4.219  10.412  0.0610 -0.2592 -0.1345
17145PP      PP27249   4.318   5.820   8.760 -0.1553 -0.3065  0.0807
17146PP      PP27250   8.449  15.526   4.329 -0.1941 -0.2548 -0.1984
17147PP      PP27251  10.721   6.770   3.633 -0.2376 -0.1018  0.2235
17148PP      PP27252   9.762   6.305  13.010 -0.1361 -0.1216 -0.3833
17149PP      PP27253   2.002   8.287  11.460  0.0752 -0.0499  0.1239
17150PP      PP27254   5.880   9.963   3.988 -0.0921  0.0905  0.0095
17151PP      PP27255   4.967   7.792   0.818  0.2272 -0.0950  0.1221
17152PP      PP27256  15.239  13.438   3.249 -0.3096 -0.0502 -0.0930
17153PP      PP27257  11.893   9.770   3.616 -0.1773  0.2729 -0.1306
17154PP      PP27258   8.904   2.606  13.366  0.1411  0.1307 -0.2514
17155PP      PP27259   3.897  15.303  12.551  0.3240 -0.0980  0.1952
17156PP      PP27260   6.694  12.511   9.307  0.3003  0.0269 -0.1930
17157PP      PP27261   4.296  11.941  10.195 -0.0658  0.1131  0.4655
17158PP      PP27262   9.551  13.182   3.082 -0.0093 -0.0937 -0.1181
17159PP      PP27263  12.112   6.531   7.917  0.0163  0.0896  0.2007
17160PP      PP27264   6.317  13.289  12.079 -0.0342 -0.1096 -0.0098
17161PP      PP27265   1.053   6.304   8.948 -0.1965 -0.1698 -0.0693
17162PP      PP27266   0.915   8.562  12.236  0.1854  0.0681  0.1956
17163PP      PP27267   2.782  11.398   3.635  0.0270  0.1951 -0.1004
17164PP      PP27268  12.898  15.219   2.614  0.1214 -0.1074  0.0407
17165PP      PP27269   3.665  13.734   3.823 -0.2625 -0.3686 -0.0350
17166PP      PP27270   7.745   4.315   9.644  0.1255  0.3660 -0.1603
17167PP      PP27271   0.531  14.062  10.634 -0.1133  0.0203 -0.1795
17168PP      PP27272   4.428   8.593   2.221  0.0651  0.1521 -0.3387
17169PP      PP27273   0.457   9.665  12.649 -0.3704  0.0592  0.0909
17170PP      PP27274   9.917   3.972   8.721  0.0375 -0.4169 -0.1188
17171PP      PP27275  14.914   8.956   2.640  0.1243 -0.2869  0.4418
17172PP      PP27276   0.972   9.812  12.791  0.0883 -0.2785 -0.0033
17173PP      PP27277   5.784  12.507   0.657  0.3759  0.0155  0.0111
17174PP      PP27278   9.606  13.125  10.277 -0.3574 -0.0482 -0.1076
17175PP      PP27279  14.987   2.834   9.648  0.3402  0.0700  0.3206
17176PP      PP27280   0.512  12.991   3.884 -0.4198  0.1340 -0.0903
17177PP      PP27281  11.548  10.324   3.756  0.4719 -0.2516 -0.0654
17178PP      PP27282   8.141   6.865   1.865 -0.0643 -0.0024  0.0641
17179PP      PP27283   7.794   9.959  10.428  0.0601  0.1965  0.1137
17180PP      PP27284   9.831  11.280   1.891  0.1071 -0.3041  0.1242
17181PP      PP27285  15.487   6.851  12.534  0.1503 -0.1624  0.1921
17182PP      PP27286  15.001   7.972   9.739  0.1052  0.1920 -0.2116
17183PP      PP27287  12.421   6.666   8.909  0.0465  0.1832 -0.2416
17184PP      PP27288   3.632   9.371   4.639 -0.3403  0.5061  0.1295
17185PP      PP27289   3.883   0.597   2.383 -0.2924  0.0870 -0.1565
17186PP      PP27290   2.021  14.149   1.548 -0.2026 -0.3504  0.3974
17187PP      PP27291  12.439  11.955   1.350  0.1965 -0.3459  0.0393
17188PP      PP27292   3.640   4.311  12.781 -0.0233  0.0709 -0.1809
17189PP      PP27293  11.935   8.671   0.588  0.1099 -0.1135 -0.1084
17190PP      PP27294  15.065   1.073  13.283 -0.1094 -0.2811  0.0302
17191PP      PP27295   2.138   4.518  10.943  0.2152 -0.0251  0.2952
17192PP      PP27296   4.525   0.003   3.000 -0.0249  0.2368  0.5165
17193PP      PP27297   4.950   6.669   8.805  0.1449  0.0822 -0.0962
17194PP      PP27298  12.603   7.591  10.183  0.1902 -0.2691  0.0465
17195PP      PP27299  11.293  14.552  11.413 -0.1859  0.1178 -0.0610
17196PP      PP27300   9.735   0.369  11.390 -0.1059 -0.3201 -0.3182
17197PP      PP27301   3.258   0.253   2.386 -0.2265  0.1887  0.0418
17198PP      PP27302   5.876   2.382  11.382 -0.1542 -0.0980 -0.0145
17199PP      PP27303   1.884   2.293   1.991  0.2542  0.4219 -0.0349
17200PP      PP27304   9.734   4.765  11.285 -0.1096  0.0795  0.0595
17201PP      PP27305   0.365   2.211  11.867  0.0445  0.2041  0.0317
17202PP      PP27306   7.819   2.575  10.329  0.0776  0.3296 -0.0585
17203PP      PP27307   5.770   1.973   0.967  0.1507 -0.1661  0.2178
17204PP      PP27308   7.726  15.812   3.626  0.0658 -0.3965  0.0013
17205PP      PP27309  12.424  13.901   0.236  0.2722  0.1786  0.1698
17206PP      PP27310  10.134   1.229   1.726 -0.1042  0.1657  0.2723
17207PP      PP27311  11.515  10.998   4.617  0.2479 -0.0853 -0.0108
17208PP      PP27312   4.522   6.714   9.985  0.2546  0.0582 -0.1043
17209PP      PP27313   9.644  13.522   4.110 -0.0907 -0.0955 -0.1880
17210PP      PP27314   6.762  15.596   2.869 -0.2775 -0.1351  0.4399
17211PP      PP27315   6.324   4.770   3.421  0.0869  0.2707  0.1832
17212PP      PP27316  15.597  14.132  12.801 -0.1680 -0.0086 -0.3202
17213PP      PP27317   5.880   1.971   0.463 -0.0712  0.0730 -0.2152
17214PP      PP27318   3.619   9.719  11.840 -0.0960  0.0542  0.1623
17215PP      PP27319   5.940   7.312   8.733  0.1312  0.1044 -0.0208
17216PP      PP27320  14.967   3.109  10.153 -0.1225 -0.1030 -0.1270
17217PP      PP27321   9.932   3.618  12.034  0.0081 -0.1858  0.0274
17218PP      PP27322  12.637   7.711  11.892  0.2237 -0.1736  0.1596
17219PP      PP27323   1.259   1.499   9.492 -0.2042 -0.0524  0.0760
17220PP      PP27324   7.322   5.439   2.337 -0.1692  0.0202  0.3734
17221PP      PP27325   7.108  11.338  11.326 -0.2707  0.1763 -0.2583
17222PP      PP27326   8.063  11.413   3.694 -0.1060 -0.1475 -0.0725
17223PP      PP27327   6.062   5.838   8.726  0.1026 -0.0700 -0.0381
17224PP      PP27328   8.632   2.794   0.545  0.0090 -0.1674  0.2988
17225PP      PP27329  15.349  13.349   4.425  0.0832  0.0155 -0.1349
17226PP      PP27330  12.433   8.093  12.107  0.2147 -0.0139  0.1294
17227PP      PP27331  12.418  13.447   4.248  0.0125 -0.0692  0.0889
17228PP      PP27332  10.359  11.307   4.146  0.0462 -0.0339 -0.3439
17229PP      PP27333   3.022   7.697   4.023 -0.0323  0.1223 -0.0248
17230PP      PP27334   3.768   6.600   0.060  0.0952 -0.0351 -0.3170
17231PP      PP27335  12.786   2.577   0.847  0.1583 -0.0086  0.0596
17232PP      PP27336   4.419   3.199   0.705  0.0095 -0.1653  0.1254
17233PP      PP27337  11.607  15.787   3.831 -0.0556  0.2091 -0.0500
17234PP      PP27338   4.452   5.621  13.498 -0.3580 -0.0285  0.0151
17235PP      PP27339  12.225   5.770  13.157 -0.0990  0.0170 -0.0480
17236PP      PP27340   3.472   0.999  12.874 -0.1846  0.1342 -0.0324
17237PP      PP27341   8.366  13.118  11.430 -0.3631 -0.2687  0.2073
17238PP      PP27342   0.745  10.402   9.426  0.0944 -0.1192 -0.1658
17239PP      PP27343  15.566   7.324  12.003  0.1049  0.1687  0.0815
17240PP      PP27344   9.954   6.047  11.990  0.0749  0.1271 -0.1172
17241PP      PP27345   5.662   2.435  12.969 -0.2194  0.3090  0.0366
17242PP      PP27346  14.935  15.544   4.254 -0.0443  0.2534 -0.1520
17243PP      PP27347   7.087  10.592   4.009  0.4480 -0.3276 -0.2716
17244PP      PP27348   6.751   4.566   3.608 -0.0172  0.2685  0.1678
17245PP      PP27349   5.474  12.007  12.987  0.2319  0.1557  0.0654
17246PP      PP27350   3.039   1.942   0.936 -0.0120  0.0152 -0.0664
17247PP      PP27351  12.380   1.532  10.111 -0.1970 -0.1518  0.2322
17248PP      PP27352   8.149  10.081   3.766 -0.0350  0.2239 -0.1077
17249PP      PP27353   8.153  11.347   2.379 -0.2067  0.0217 -0.3158
17250PP      PP27354   5.907  15.510  10.080 -0.2949  0.1580 -0.1714
17251PP      PP27355  11.936   4.304   0.927 -0.1665 -0.1731 -0.0855
17252PP      PP27356   8.112   7.464   9.918  0.0117  0.3046  0.1327
17253PP      PP27357  11.993   5.205  13.539 -0.3532  0.0800  0.2581
17254PP      PP27358  10.917   5.694   8.516  0.1175 -0.1553 -0.3426
17255PP      PP27359  12.046   2.658   4.454  0.0115  0.3480 -0.1336
17256PP      PP27360   9.601   8.498   3.206  0.0241  0.0827  0.1880
17257PP      PP27361   3.360  15.152   9.509  0.1727 -0.1029 -0.1901
17258PP      PP27362  14.520   5.307   3.807 -0.1751 -0.0641 -0.3579
17259PP      PP27363   6.597   2.699  12.616 -0.2175 -0.3091 -0.0414
17260PP      PP27364   8.923   4.455   2.814 -0.0258  0.0727  0.1163
17261PP      PP27365   4.942  14.665   0.062  0.3896 -0.1778  0.1019
17262PP      PP27366   8.325   6.112  11.368  0.2856  0.1028  0.0206
17263PP      PP27367   9.252  11.983  11.354 -0.2757  0.1441  0.0418
17264PP      PP27368   3.384  14.228   9.619  0.0211 -0.2067  0.0081
17265PP      PP27369   8.798   0.850   2.674  0.1597 -0.0534 -0.1548
17266PP      PP27370  15.170   8.725   3.042  0.2045 -0.1614  0.0046
17267PP      PP27371  13.310  10.860   8.758  0.0511 -0.1791  0.0332
17268PP      PP27372  15.853  13.158  10.864 -0.1934 -0.2705  0.0427
17269PP      PP27373   4.132   8.922   9.740  0.2293 -0.1600  0.3542
17270PP      PP27374  10.679   4.427  11.229 -0.0890 -0.1707 -0.4168
17271PP      PP27375  11.156   4.423   3.176  0.0329  0.3530  0.1962
17272PP      PP27376   9.248   7.117   8.182  0.2337 -0.2401 -0.2105
17273PP      PP27377  11.821   9.770   4.221 -0.5674 -0.0086  0.1794
17274PP      PP27378   3.840   0.251   1.135 -0.1320 -0.3553  0.0965
17275PP      PP27379   3.503   8.338   3.484 -0.0428  0.2938  0.3280
17276PP      PP27380   0.440   0.127   4.469  0.2317 -0.0143 -0.1816
17277PP      PP27381  10.935   4.708   1.947  0.0208  0.2966  0.0541
17278PP      PP27382  12.831   3.471   9.685  0.0112  0.2062  0.3366
17279PP      PP27383  10.365   4.874   8.881  0.4261 -0.4065 -0.0883
17280PP      PP27384   7.335   5.341   8.770  0.0882 -0.0007  0.0328
17281PP      PP27385   5.039   2.510   4.299  0.2428 -0.0353 -0.0072
17282PP      PP27386  14.523  14.117   3.673 -0.1108 -0.0796 -0.1924
17283PP      PP27387  10.105   6.888   8.249  0.0239 -0.1621 -0.0821
17284PP      PP27388  14.047   5.722  11.875 -0.1161  0.1433 -0.1453
17285PP      PP27389  14.469   8.236   8.755  0.0097  0.2755 -0.0427
17286PP      PP27390   1.296  15.039  12.070  0.1395 -0.0112  0.1627
17287PP      PP27391  15.598   5.885   9.299 -0.0623 -0.0759 -0.1081
17288PP      PP27392   2.399   3.692   4.308  0.0503  0.0167  0.0241
17289PP      PP27393   2.245   3.486   0.601  0.2136  0.1170  0.1899
17290PP      PP27394  14.528   0.533   2.764 -0.2176  0.0030  0.1103
17291PP      PP27395  12.632   5.462   8.292  0.0402  0.1344  0.0700
17292PP      PP27396   9.352   3.389  10.442 -0.3646 -0.1490 -0.1689
17293PP      PP27397   4.649   1.325   2.114  0.0650  0.0159 -0.0821
17294PP      PP27398   7.170  15.264  11.135  0.0031  0.2365 -0.0757
17295PP      PP27399   3.089  15.645  11.636  0.3007 -0.2433 -0.2317
17296PP      PP27400   9.909  11.134   9.362 -0.2506 -0.0247  0.0563
17297PP      PP27401  15.243   4.205   8.485  0.0644  0.5643  0.0302
17298PP      PP27402   6.100   6.635   2.936  0.0991 -0.3225 -0.3383
17299PP      PP27403   1.814   0.045   9.959 -0.1297 -0.4172  0.0705
17300PP      PP27404  13.939   8.148   9.749  0.1370  0.3491 -0.2444
17301PP      PP27405  15.792   1.773  11.278 -0.1891  0.0529 -0.0221
17302PP      PP27406  13.035  13.090   1.076  0.0647  0.1471  0.0206
17303PP      PP27407   5.085   7.015   1.021  0.1818  0.1572 -0.0056
17304PP      PP27408   4.585   9.125  10.892 -0.1661 -0.2433  0.2787
17305PP      PP27409   8.321   3.179  10.934  0.1600 -0.0140 -0.1632
17306PP      PP27410  10.447   8.669   0.981  0.2316  0.5449  0.1313
17307PP      PP27411   6.867   2.832   3.254 -0.0811  0.0860 -0.2632
17308PP      PP27412   7.392  12.565   2.936  0.4513 -0.3106 -0.2241
17309PP      PP27413   2.780   9.599   9.228 -0.2316 -0.0126 -0.2252
17310PP      PP27414   9.016   0.255  13.534 -0.1101  0.0436  0.2366
17311PP      PP27415   5.453   3.215   2.992 -0.0969  0.0617 -0.1755
17312PP      PP27416   6.999   3.547   9.669  0.0660 -0.1266 -0.1630
17313PP      PP27417  13.555   5.111  10.635 -0.0801  0.1916  0.0398
17314PP      PP27418   7.274  15.163   9.395 -0.2387 -0.3658  0.4712
17315PP      PP27419   0.163   4.506  10.484 -0.2268 -0.0465  0.0544
17316PP      PP27420   7.643   3.061  11.472  0.0962 -0.1345  0.0327
17317PP      PP27421  13.124  12.863  12.012  0.0779 -0.0143  0.2362
17318PP      PP27422   4.945   7.623   9.675  0.0595 -0.0250  0.2012
17319PP      PP27423   8.484  11.570  11.950 -0.3444 -0.0070  0.2328
17320PP      PP27424   0.754  10.526  11.498 -0.1525 -0.1248  0.1051
17321PP      PP27425   8.556  10.810   3.632  0.1718 -0.2126 -0.1141
17322PP      PP27426   1.279  13.983   0.856  0.0307  0.0042 -0.0725
17323PP      PP27427  13.601   7.702   1.443  0.0678 -0.3553 -0.0747
17324PP      PP27428   9.712  11.935   1.029  0.1001  0.1586  0.3419
17325PP      PP27429   4.107  13.731  12.925  0.1181 -0.0304 -0.1507
17326PP      PP27430  13.584   4.835   8.397 -0.0405 -0.1401 -0.2391
17327PP      PP27431   7.526  13.415  13.042  0.2584  0.2609 -0.0380
17328PP      PP27432   3.298   8.027  10.251  0.1232  0.1079  0.2140
17329PP      PP27433   0.555   6.246   9.256  0.3185  0.0691  0.0967
17330PP      PP27434  14.551   1.303   1.077 -0.0032 -0.3789  0.0291
17331PP      PP27435   5.629  10.210  10.430  0.1020 -0.5185  0.0791
17332PP      PP27436   9.457  12.787   0.526 -0.1075  0.0283 -0.0923
17333PP      PP27437  12.904  11.951   4.198 -0.1008  0.0419 -0.2908
17334PP      PP27438   5.268  14.331   0.932 -0.2106 -0.1644  0.1459
17335PP      PP27439   4.067   4.594   0.532 -0.1369 -0.0870  0.1700
17336PP      PP27440  11.477   8.844  10.921 -0.1185  0.0231 -0.0976
17337PP      PP27441  11.557   6.272   2.249  0.1873 -0.1506 -0.1578
17338PP      PP27442   1.855   3.961  13.190  0.0413  0.1872 -0.1419
17339PP      PP27443   9.953   4.097   1.808 -0.0435 -0.1166 -0.3794
17340PP      PP27444  12.343   1.403   4.087  0.2507 -0.0841  0.1491
17341PP      PP27445   5.864   7.608  12.918  0.0414 -0.2095 -0.0132
17342PP      PP27446   3.582   0.084   2.768 -0.0319 -0.3529 -0.1138
17343PP      PP27447   5.348   3.234  12.701 -0.1732  0.0281  0.0802
17344PP      PP27448   3.485   3.377   1.046 -0.0087  0.0794 -0.1237
17345PP      PP27449  12.800   6.524   7.502  0.2193  0.0824 -0.0396
17346PP      PP27450   1.296   0.568   2.851 -0.2600 -0.1869 -0.1175
17347PP      PP27451   0.933  13.939  12.022  0.2571 -0.1111 -0.2399
17348PP      PP27452  13.318   5.211   4.001 -0.1709  0.0022  0.2172
17349PP      PP27453  10.139  15.282  11.719 -0.1985  0.0924  0.2008
17350PP      PP27454   7.701   2.388   2.703 -0.1410 -0.0599  0.0585
17351PP      PP27455  15.370  12.200  13.344 -0.2384 -0.1151 -0.2333
17352PP      PP27456   6.520   1.932   3.370 -0.0734  0.2721  0.3119
17353PP      PP27457  11.204  10.726  11.393  0.2600  0.1539  0.0460
17354PP      PP27458   6.592   4.759   1.952 -0.3130  0.3822  0.0474
17355PP      PP27459  14.865  10.299   2.534 -0.0203  0.3456  0.0260
17356PP      PP27460  10.883   7.325   1.712 -0.2548  0.1896 -0.0836
17357PP      PP27461   7.623   0.301   1.292 -0.0928 -0.2098  0.1475
17358PP      PP27462  12.113  13.769  11.983  0.5041  0.2588 -0.2228
17359PP      PP27463  14.128   7.041   1.039 -0.0524  0.1290  0.0045
17360PP      PP27464   1.062  15.845   4.048 -0.2425 -0.0729  0.1905
17361PP      PP27465   9.527   3.836   3.722  0.2772  0.0256  0.0948
17362PP      PP27466   1.800  12.900   0.198  0.0948  0.2582  0.2058
17363PP      PP27467   6.040  14.894   4.496 -0.2596 -0.0304 -0.0403
17364PP      PP27468   2.828  14.156   4.672  0.0715  0.0091 -0.1778
17365PP      PP27469  11.174   6.929   8.000  0.4941  0.1561 -0.0521
17366PP      PP27470  10.658  10.874  11.656 -0.1285  0.2264 -0.0027
17367PP      PP27471   3.434   4.137  13.327 -0.0407  0.0389  0.2641
17368PP      PP27472   8.464  13.922   1.193 -0.1611 -0.0752 -0.0877
17369PP      PP27473  10.981   5.790  11.243  0.1234  0.0225 -0.3275
17370PP      PP27474   5.415  15.830  11.239  0.1451  0.5454  0.2202
17371PP      PP27475  14.067  14.235   1.624 -0.1313  0.0683  0.2354
17372PP      PP27476   3.466   9.981   9.808  0.0795  0.1999 -0.2200
17373PP      PP27477   7.867   9.719   4.178  0.2358  0.0090  0.1993
17374PP      PP27478  14.700   9.894  10.591 -0.0421  0.1286 -0.3104
17375PP      PP27479  13.933  13.887   2.590 -0.2004 -0.0313 -0.0057
17376PP      PP27480  14.285  11.103  10.719 -0.0007  0.2640 -0.1119
17377PP      PP27481   2.726   0.836  10.703  0.0498  0.0215  0.2273
17378PP      PP27482  15.136   7.591  10.702  0.1983 -0.2247 -0.1876
17379PP      PP27483  11.242   9.543  10.064  0.0267  0.3460 -0.2236
17380PP      PP27484  13.759   1.754  11.688 -0.0658  0.2447  0.0503
17381PP      PP27485  10.149  15.477  10.802  0.1126  0.2631  0.0828
17382PP      PP27486  12.636   0.764   8.768 -0.4078 -0.2113 -0.1048
17383PP      PP27487  11.160  13.968   9.639 -0.2105  0.0476 -0.3465
17384PP      PP27488  12.327   2.530   3.799 -0.0929  0.4237 -0.0784
17385PP      PP27489   8.435  10.998  11.265 -0.3286  0.0825 -0.1035
17386PP      PP27490   2.881  13.503  11.845  0.3253 -0.1095  0.1061
17387PP      PP27491   3.014   5.795   9.540 -0.2772 -0.2593 -0.0204
17388PP      PP27492   7.860   1.282   9.835  0.2206 -0.0134  0.1523
17389PP      PP27493   2.809   3.315   2.365 -0.3633  0.2165 -0.3365
17390PP      PP27494   5.046   9.709   3.096 -0.1531 -0.5788 -0.0548
17391PP      PP27495   2.753   4.202  13.415  0.0282 -0.2035 -0.0101
17392PP      PP27496   3.150  10.816   0.548  0.1867  0.1615  0.0604
17393PP      PP27497   7.016   4.081   1.543 -0.1953  0.0949 -0.0653
17394PP      PP27498  11.951   4.046   0.453 -0.0752  0.2798  0.1493
17395PP      PP27499  13.765  14.612  13.029  0.0494 -0.0938 -0.0062
17396PP      PP27500  14.474   5.012   2.619  0.0078  0.0695  0.2138
17397PP      PP27501   3.817   4.215   2.609 -0.1014  0.1393  0.2464
17398PP      PP27502   9.104  12.140   1.578 -0.0486  0.1195 -0.3821
17399PP      PP27503  11.906   3.596  12.814  0.5335 -0.0945 -0.1800
17400PP      PP27504   8.066  10.515   3.952 -0.3207  0.0218 -0.2405
17401PP      PP27505  10.733   5.240  10.332  0.0901 -0.2856  0.0386
17402PP      PP27506   7.036   4.785   9.974 -0.3759  0.2834  0.3435
17403PP      PP27507  15.333   5.033   2.625 -0.0976 -0.1557 -0.1646
17404PP      PP27508   9.521   9.922  11.171 -0.0464 -0.0512 -0.0404
17405PP      PP27509   7.178  15.470  12.664  0.2088 -0.0521 -0.0851
17406PP      PP27510   2.353   9.337   2.804  0.1393  0.1387 -0.1065
17407PP      PP27511   5.900   9.427  10.694 -0.1325  0.0800  0.1841
17408PP      PP27512   8.656   9.963   1.027  0.1415 -0.0554  0.2478
17409PP      PP27513  15.857   2.341   4.645 -0.0924  0.0833  0.0221
17410PP      PP27514   8.645   5.003  13.114  0.0535  0.1446  0.2086
17411PP      PP27515  13.517   5.167  12.488 -0.0119  0.0685 -0.0560
17412PP      PP27516   0.143   6.249   5.190 -0.0309 -0.1703 -0.4211
17413PP      PP27517   9.898   0.110  11.808 -0.0797 -0.2140  0.2349
17414PP      PP27518   1.170   1.604   2.947 -0.1175  0.2650  0.1728
17415PP      PP27519   4.379   1.061   8.835 -0.3302 -0.2716  0.1454
17416PP      PP27520  11.861  15.778  13.043  0.0150 -0.1710  0.0586
17417PP      PP27521   1.009  12.909   1.480 -0.2796 -0.0545 -0.0884
17418PP      PP27522   7.768   7.656   1.812  0.0573 -0.2975  0.0697
17419PP      PP27523  10.625  14.934  10.177  0.2293 -0.1497  0.0464
17420PP      PP27524  15.824  13.666   2.174  0.2218  0.1354 -0.0713
17421PP      PP27525  15.070   2.295   3.251  0.1784 -0.2030  0.0586
17422PP      PP27526  13.972   1.080   9.376  0.0498 -0.2628 -0.1068
17423PP      PP27527   3.962   1.198   1.931  0.4094 -0.0479 -0.2946
17424PP      PP27528   0.163  13.402   1.252 -0.1797 -0.4333  0.1799
17425PP      PP27529   5.027   4.326   2.110 -0.0451 -0.1637 -0.4507
17426PP      PP27530   9.001  10.477   2.603 -0.2557 -0.1810  0.0754
17427PP      PP27531  14.330  12.141   2.288  0.1643 -0.0007 -0.1132
17428PP      PP27532  12.214   8.329   3.415 -0.0061  0.2083 -0.3597
17429PP      PP27533   1.532   3.693  12.438  0.0571  0.1926  0.1630
17430PP      PP27534  12.202  13.272   1.500  0.2556  0.2962 -0.1180
17431PP      PP27535   8.473   7.139  10.038 -0.1727 -0.1109  0.3985
17432PP      PP27536   5.034   5.221   0.474 -0.1313 -0.0473 -0.1132
17433PP      PP27537  12.523  12.976   2.473  0.0027 -0.3319  0.0630
17434PP      PP27538  15.191   5.629  12.585  0.1247 -0.3319 -0.0914
17435PP      PP27539  13.399   8.052  12.984  0.0396  0.2424 -0.0461
17436PP      PP27540   1.830  14.869   8.764  0.2158  0.2228  0.2920
17437PP      PP27541   2.372   3.830  11.187  0.3011 -0.1952  0.3909
17438PP      PP27542   2.854  12.598   2.952 -0.1249 -0.2335  0.0736
17439PP      PP27543   6.060   9.845  11.678  0.0897  0.3803  0.1521
17440PP      PP27544  15.266  14.286  11.747  0.1646  0.2006 -0.1344
17441PP      PP27545  10.335  13.000   0.390  0.0279 -0.0659 -0.0699
17442PP      PP27546  12.575  10.498   9.922 -0.0479  0.1484 -0.0897
17443PP      PP27547   7.183  14.713   8.441 -0.0242 -0.1189 -0.1147
17444PP      PP27548   7.773  14.966   1.886  0.0470  0.1706 -0.0594
17445PP      PP27549   6.477   1.899   9.864  0.1739  0.1594 -0.0535
17446PP      PP27550   9.415  10.194   2.627 -0.1050 -0.1365 -0.1023
17447PP      PP27551  12.489  10.525   3.789 -0.2176  0.1815 -0.2105
17448PP      PP27552   1.722  10.011   9.300 -0.1573 -0.2860  0.0723
17449PP      PP27553  10.458  14.681   1.952  0.0538  0.0407  0.1808
17450PP      PP27554   5.774   3.450   9.876 -0.1107  0.5394  0.1120
17451PP      PP27555   7.480  14.982  12.541  0.1276  0.0804 -0.0583
17452PP      PP27556   6.345  11.392   4.746  0.0078  0.0822  0.0485
17453PP      PP27557   4.092  13.283   3.327  0.1392 -0.2460 -0.3335
17454PP      PP27558   9.535  13.985  11.165  0.1262  0.0048  0.1986
17455PP      PP27559  11.551   2.019  13.456  0.1981 -0.1486 -0.1765
17456PP      PP27560   5.398   5.287   1.781 -0.0272  0.0171  0.3274
17457PP      PP27561  14.302   7.686   9.649 -0.1386 -0.1375 -0.0862
17458PP      PP27562  12.779   0.748  11.677  0.1863  0.1392 -0.1356
17459PP      PP27563   2.700  10.199  13.314 -0.3497  0.0577 -0.1687
17460PP      PP27564   8.744   7.309   2.911  0.2199 -0.0295 -0.1055
17461PP      PP27565   7.261   5.264  12.720  0.2172  0.0110  0.1743
17462PP      PP27566  12.376  13.352   3.269  0.2305 -0.2875 -0.0129
17463PP      PP27567   0.635  10.582  12.297 -0.3287  0.1890 -0.1575
17464PP      PP27568   2.988  12.469  11.777  0.2952  0.3305 -0.1071
17465PP      PP27569   4.203   3.738   1.922 -0.1938 -0.2625  0.1512
17466PP      PP27570   6.507  14.347  10.164 -0.1866  0.2450  0.1843
17467PP      PP27571  14.418  15.823  10.014 -0.1284 -0.0722  0.3440
17468PP      PP27572   2.370  14.875   9.538 -0.2826  0.1472 -0.3229
17469PP      PP27573   4.998   9.741   2.584 -0.2158 -0.1472  0.4399
17470PP      PP27574   1.346   7.505   9.906 -0.0923  0.3200 -0.0770
17471PP      PP27575   7.560   9.488  10.420  0.1556 -0.3100 -0.1123
17472PP      PP27576   6.814   0.498   1.566  0.2038  0.0860 -0.0536
17473PP      PP27577  12.920  12.026   2.359  0.2034  0.2872 -0.0089
17474PP      PP27578   6.847  15.851  12.393 -0.0340  0.2954 -0.1553
17475PP      PP27579   8.468  11.265   0.866  0.0491 -0.0018 -0.0284
17476PP      PP27580   5.328   0.965   9.587  0.2589 -0.0516  0.1715
17477PP      PP27581   7.970  11.664  12.700  0.1979  0.0072 -0.1055
17478PP      PP27582   0.387  14.141   4.334  0.1988 -0.5119  0.3249
17479PP      PP27583  12.623   5.012  11.036 -0.1397  0.1394  0.1014
17480PP      PP27584  10.187   9.585   2.757 -0.2166 -0.1395  0.0917
17481PP      PP27585   5.321   5.121   2.620  0.1472  0.1772 -0.0929
17482PP      PP27586   9.592   9.023   3.653  0.0235  0.2805 -0.1709
17483PP      PP27587  14.514  14.792   0.306  0.0745 -0.0499  0.1276
17484PP      PP27588   8.497   6.677   0.930 -0.0136 -0.0647 -0.1650
17485PP      PP27589  14.136  14.250  12.533  0.1164 -0.0314 -0.0701
17486PP      PP27590   0.457   2.085   2.011  0.1816 -0.3680  0.0508
17487PP      PP27591  10.740  10.279  11.327 -0.0348  0.0138 -0.1957
17488PP      PP27592   7.688  10.223  12.307 -0.2593  0.1415  0.0354
17489PP      PP27593  13.020   6.128  10.006 -0.1260 -0.2686  0.2151
17490PP      PP27594  11.278  10.248   0.370 -0.1185  0.0458  0.0981
17491PP      PP27595   4.194  14.046  12.499  0.2353 -0.1104  0.0138
17492PP      PP27596  14.155   2.396   2.800  0.3649 -0.2564  0.0648
17493PP      PP27597  12.357   2.887   2.051 -0.3401  0.1594 -0.0928
17494PP      PP27598   1.245   3.357  11.347  0.2718 -0.0690 -0.1187
17495PP      PP27599  15.319   6.151   0.879 -0.1884  0.1926  0.0099
17496PP      PP27600  10.008   3.724  10.014 -0.2386 -0.0681 -0.0545
17497PP      PP27601   5.653  13.363   9.879  0.0442 -0.0067  0.0904
17498PP      PP27602   6.450   8.910   8.865  0.0348  0.0883 -0.5072
17499PP      PP27603   6.749   7.651   3.630  0.1401  0.3016  0.0664
17500PP      PP27604   5.298   9.185   3.944  0.3061 -0.1489  0.1485
17501PP      PP27605   1.088  13.954  12.999 -0.1280 -0.0566  0.2702
17502PP      PP27606   1.106   4.860  10.841  0.0499  0.1016  0.0244
17503PP      PP27607   1.766  12.557   0.524 -0.0607 -0.0329 -0.6048
17504PP      PP27608   6.732   3.734   1.053  0.2548 -0.0752 -0.1152
17505PP      PP27609   4.474   6.903   3.921 -0.1872  0.1890 -0.0824
17506PP      PP27610  12.280  13.740   9.540  0.2016  0.0438  0.3806
17507PP      PP27611   9.303  10.326   4.581 -0.0225  0.0393  0.1137
17508PP      PP27612   5.739  10.644  10.187  0.1410  0.1356  0.0977
17509PP      PP27613   9.000  13.002  13.489  0.3701  0.1805  0.0935
17510PP      PP27614  15.269   6.513   2.212  0.0137 -0.1046  0.1910
17511PP      PP27615   9.388   9.925  11.805  0.1297  0.2346 -0.4521
17512PP      PP27616   8.782   7.270  11.088  0.1974 -0.3412 -0.1562
17513PP      PP27617   5.002  10.687   1.387 -0.0265  0.2149 -0.1281
17514PP      PP27618   2.689  13.145   1.527 -0.3303 -0.0503  0.0286
17515PP      PP27619   1.117  10.104   3.783  0.2450 -0.7520 -0.0057
17516PP      PP27620   5.844   6.091   9.097  0.1309 -0.0401 -0.2367
17517PP      PP27621   6.792   9.191  13.489  0.0784  0.1269 -0.0427
17518PP      PP27622  12.171  11.530   9.164 -0.0140 -0.1696 -0.0512
17519PP      PP27623   7.144   2.469   4.837  0.0422 -0.0170 -0.0361
17520PP      PP27624  12.722   3.359  10.458  0.0643  0.0986 -0.1262
17521PP      PP27625   0.472   5.421  10.588  0.0773 -0.0780  0.1641
17522PP      PP27626  10.742  11.577   3.399 -0.2295  0.1766  0.2049
17523PP      PP27627   5.161  15.289   1.688 -0.3608 -0.0699  0.1953
17524PP      PP27628  13.712  12.349  10.270 -0.2425 -0.2360 -0.0578
17525PP      PP27629   0.022  13.741   0.942  0.4572 -0.2028 -0.0342
17526PP      PP27630   2.648   0.023  11.461 -0.2081  0.2022  0.0424
17527PP      PP27631   9.691   3.947  12.280  0.3631  0.1602  0.2466
17528PP      PP27632  10.575  12.092  11.032  0.3953 -0.1204 -0.0020
17529PP      PP27633   9.723  10.704   1.975  0.3801  0.2678 -0.0451
17530PP      PP27634  11.241   3.667  11.075  0.1103 -0.1714 -0.1294
17531PP      PP27635   7.075  15.193   2.899 -0.2325 -0.1097  0.3583
17532PP      PP27636   0.933  13.825  11.444 -0.1931  0.1620 -0.0504
17533PP      PP27637   1.519  12.930   3.461  0.1283  0.0558 -0.1278
17534PP      PP27638  11.959   9.686   8.780  0.1285  0.1872  0.0506
17535PP      PP27639   6.995  12.198   3.777  0.0367  0.0773 -0.1322
17536PP      PP27640  13.894   2.755  12.968 -0.1859 -0.2043 -0.1702
17537PP      PP27641  14.961   4.007  13.279  0.0024  0.2844  0.0355
17538PP      PP27642  15.379  14.961   0.908  0.0536 -0.2473 -0.0855
17539PP      PP27643   5.916   0.167   1.616 -0.1055 -0.2548 -0.3565
17540PP      PP27644  14.276   3.163   1.533  0.0331  0.0246 -0.0794
17541PP      PP27645   5.453   5.481   9.610 -0.2697 -0.1419  0.0946
17542PP      PP27646   4.947  11.995  12.197 -0.4056 -0.2356 -0.0903
17543PP      PP27647  13.040  14.273   0.352 -0.1776  0.1043 -0.1686
17544PP      PP27648   3.403   6.842   1.119  0.2274 -0.2344 -0.4240
17545PP      PP27649   9.927   7.620   8.101  0.2467  0.1120  0.3454
17546PP      PP27650   2.520   5.984  13.513 -0.0085 -0.0506 -0.0562
17547PP      PP27651  10.528  13.878   1.126  0.3096 -0.0972 -0.3163
17548PP      PP27652   1.539   7.937   0.607  0.0556 -0.1097  0.2978
17549PP      PP27653   6.596  13.686  11.057 -0.1660 -0.0632 -0.0808
17550PP      PP27654   5.260   6.910   3.377  0.2101  0.1574 -0.0451
17551PP      PP27655   1.963   9.160   2.408  0.1502 -0.1511 -0.0799
17552PP      PP27656  13.323   8.489   9.991 -0.1124  0.1308 -0.0226
17553PP      PP27657  15.127  12.647  13.240  0.0051  0.0716  0.2085
17554PP      PP27658  13.375   1.763   1.840 -0.0469  0.0528  0.0698
17555PP      PP27659   9.069   2.990   0.188  0.1661 -0.0173 -0.0368
17556PP      PP27660  14.562  11.303   3.367 -0.1459 -0.0606 -0.0131
17557PP      PP27661  10.942  11.343  10.134 -0.3765 -0.1748 -0.0016
17558PP      PP27662   1.697  10.427   2.062 -0.4181 -0.2893  0.0487
17559PP      PP27663   2.589   1.304   1.184 -0.0746  0.0842 -0.1329
17560PP      PP27664   5.053   3.973   9.756  0.1205 -0.1083  0.1601
17561PP      PP27665   0.095   6.285   8.436 -0.0476 -0.2610  0.1586
17562PP      PP27666  11.169   4.966  13.435 -0.0682 -0.3257  0.2175
17563PP      PP27667  10.935   1.043  10.832 -0.1464 -0.0306  0.1785
17564PP      PP27668   3.971  11.402  11.981  0.0696  0.3241  0.0589
17565PP      PP27669  12.349  12.664  10.465 -0.2186 -0.0337  0.0924
17566PP      PP27670  10.829  13.679   4.383 -0.0288 -0.2563  0.0602
17567PP      PP27671   8.568  13.326   0.430  0.2756  0.1051  0.3349
17568PP      PP27672  12.491  14.506  13.213 -0.1314  0.4130  0.2218
17569PP      PP27673  12.001  12.850   0.179 -0.0312  0.0556  0.3430
17570PP      PP27674   9.068  10.680   9.973  0.0901 -0.0583  0.1499
17571PP      PP27675  11.798   1.740   0.863 -0.0323  0.0349 -0.1684
17572PP      PP27676  15.207  10.189   3.462 -0.0955 -0.1600 -0.1151
17573PP      PP27677  12.220   0.462  10.834 -0.0223  0.0298  0.2519
17574PP      PP27678   9.070  12.882  10.255 -0.1768  0.2409 -0.0101
17575PP      PP27679   7.492  13.670  10.583 -0.1291 -0.1264 -0.1081
17576PP      PP27680  13.647   9.875   2.745  0.4408 -0.1887  0.0278
17577PP      PP27681  11.038  10.939   4.689  0.2037  0.0293 -0.1914
17578PP      PP27682  14.145   3.337   9.104  0.2912 -0.1662 -0.1446
17579PP      PP27683   6.094  12.055   1.992 -0.1413 -0.1023  0.1140
17580PP      PP27684   8.539  14.970   9.248 -0.1206 -0.1553 -0.0126
17581PP      PP27685  15.465   5.324   1.797 -0.0021  0.1179 -0.0645
17582PP      PP27686   1.429  15.187  12.999 -0.2365  0.0181  0.3420
17583PP      PP27687  14.992   2.844  11.310  0.0782  0.2753 -0.1827
17584PP      PP27688  13.168   7.024  10.654  0.0954 -0.2076 -0.1263
17585PP      PP27689   3.162   2.406  10.368  0.1528 -0.1353  0.2548
17586PP      PP27690   0.884  12.233  12.992 -0.0695 -0.0711  0.2043
17587PP      PP27691   8.782   9.637   0.623 -0.1233  0.1504 -0.0472
17588PP      PP27692   5.603   2.429   9.624 -0.0785 -0.2606 -0.5419
17589PP      PP27693   1.313  11.546  13.240 -0.2708 -0.1729 -0.0879
17590PP      PP27694  12.708  13.921   3.365  0.2154  0.1631  0.0437
17591PP      PP27695   5.550  11.113  13.141 -0.4851  0.0774 -0.0538
17592PP      PP27696   2.327  11.798   6.200 -0.3316  0.0803 -0.3531
17593PP      PP27697   0.678  10.931   1.826 -0.0899  0.0416 -0.0912
17594PP      PP27698   7.740   8.033  10.620 -0.3109 -0.0943  0.2574
17595PP      PP27699  12.528   7.319   0.375  0.0259 -0.0560 -0.1998
17596PP      PP27700  10.359   3.409   1.307 -0.2876  0.3711  0.0678
17597PP      PP27701  11.267   4.524   9.787 -0.1923 -0.3377 -0.2105
17598PP      PP27702  14.111  10.537  10.951  0.0198  0.2825  0.2797
17599PP      PP27703   3.913  14.731   3.304 -0.1900  0.0084 -0.2321
17600PP      PP27704  15.405   9.855   4.343  0.1181  0.0735 -0.0868
17601PP      PP27705  11.304   8.606  11.796  0.0324  0.3009 -0.2151
17602PP      PP27706   4.066   2.439   0.282 -0.2105  0.0749 -0.0923
17603PP      PP27707  14.338  15.503   2.938 -0.1069  0.0705  0.5346
17604PP      PP27708   4.656  11.083  11.225  0.0504  0.0727 -0.2839
17605PP      PP27709   7.704   3.868  11.241  0.2634 -0.3241 -0.3702
17606PP      PP27710   3.940   2.783  10.716  0.1896 -0.1385 -0.0147
17607PP      PP27711   7.980   2.766  11.099  0.3039 -0.0670  0.2792
17608PP      PP27712  15.011  13.723   1.827  0.2900 -0.2362 -0.0840
17609PP      PP27713   5.635  13.795   3.465  0.1712  0.3037 -0.0528
17610PP      PP27714   5.552   4.340   1.448 -0.1334  0.1763 -0.1246
17611PP      PP27715   4.403   7.898   3.871 -0.2009  0.0798  0.1810
17612PP      PP27716   0.617   6.959  12.798 -0.3615  0.2316  0.3059
17613PP      PP27717   2.256  13.723  11.523 -0.2193 -0.1531 -0.0234
17614PP      PP27718   9.450  11.225  11.751 -0.2620  0.0112 -0.1137
17615PP      PP27719  15.871   6.989  12.241 -0.0605 -0.0628 -0.1241
17616PP      PP27720   0.753   6.218   0.456 -0.0816  0.1505 -0.0747
17617PP      PP27721  11.185   9.646   0.294 -0.0187  0.1661  0.3794
17618PP      PP27722   1.702   5.815   0.465 -0.0738  0.0416  0.2423
17619PP      PP27723   0.879   8.577   1.420 -0.4606  0.1525 -0.3216
17620PP      PP27724  15.369   4.516   1.824  0.5288 -0.1478  0.1388
17621PP      PP27725  11.600   8.037   9.828 -0.1152 -0.0495  0.2186
17622PP      PP27726   1.508   4.575   0.167 -0.3086  0.0194 -0.5033
17623PP      PP27727   1.555   1.865   2.289 -0.0003  0.3462  0.0904
17624PP      PP27728   7.203   3.228  11.733  0.2200 -0.1607 -0.4719
17625PP      PP27729   9.849   0.382   4.189 -0.2836 -0.1800  0.3488
17626PP      PP27730  10.191  12.323   2.766 -0.0566 -0.0539  0.5027
17627PP      PP27731   0.627   8.848   3.944  0.0643  0.1806 -0.0339
17628PP      PP27732  14.361   4.569   2.423  0.2694 -0.1966 -0.0542
17629PP      PP27733  13.850   8.724  10.075 -0.0670 -0.1525 -0.1395
17630PP      PP27734   0.798  10.719  12.933 -0.2021  0.4662 -0.2577
17631PP      PP27735  13.646   3.304   1.251 -0.0586  0.4097 -0.0018
17632PP      PP27736   2.011   0.413  12.963  0.3208 -0.1320 -0.0123
17633PP      PP27737   9.997   2.315   4.230  0.0037 -0.0751  0.2890
17634PP      PP27738   5.261   2.944  13.233  0.2137  0.0001  0.4461
17635PP      PP27739   1.657  13.985   2.928  0.2323 -0.2129  0.2216
17636PP      PP27740  12.822   5.530   0.619  0.1267 -0.1607 -0.1372
17637PP      PP27741   9.115   7.523   3.450  0.2318 -0.0779  0.0399
17638PP      PP27742   3.894   5.398   9.502  0.0424 -0.1237 -0.0196
17639PP      PP27743   7.634  12.506  12.344 -0.1573  0.0168 -0.2037
17640PP      PP27744   3.485  11.096   2.347 -0.0541 -0.1119  0.0159
17641PP      PP27745  14.501  13.255  11.151 -0.0936 -0.0660  0.2365
17642PP      PP27746   2.208   4.790  10.496  0.0465  0.0445 -0.3261
17643PP      PP27747  12.009  12.898   1.167 -0.0181  0.1623 -0.1245
17644PP      PP27748   9.479  15.278   0.065  0.0921 -0.3684 -0.1479
17645PP      PP27749   9.248   8.652   3.586 -0.0081 -0.2267 -0.0616
17646PP      PP27750  10.964   5.933  11.794 -0.0062 -0.2149  0.1527
17647PP      PP27751  10.266  10.486   2.729 -0.1628 -0.0664  0.0397
17648PP      PP27752   2.020   6.388  10.470  0.1437  0.0988  0.0129
17649PP      PP27753  13.376   7.293   8.091  0.0915  0.1613  0.1698
17650PP      PP27754   3.488   3.942   3.300 -0.2147  0.0434  0.0423
17651PP      PP27755  13.485   8.964  11.606  0.1384  0.0008 -0.1196
17652PP      PP27756   1.077   9.143   8.973  0.2399 -0.6212 -0.0374
17653PP      PP27757   4.381   1.606   1.332  0.1485 -0.2064 -0.2048
17654PP      PP27758   6.420  15.171   4.613  0.0572  0.0309 -0.1498
17655PP      PP27759   6.176  11.188  12.122 -0.0579 -0.1226  0.1389
17656PP      PP27760   3.800  14.834   1.998 -0.0298  0.3143 -0.0580
17657PP      PP27761   9.164   0.357  11.369 -0.0183  0.1897 -0.1200
17658PP      PP27762   0.564   2.718   4.607  0.4694  0.0978 -0.1288
17659PP      PP27763  12.366  13.271   0.968  0.2183 -0.0610  0.0133
17660PP      PP27764  15.452   5.903   3.361 -0.2944  0.1706 -0.0218
17661PP      PP27765  11.687   3.627   3.265 -0.4058 -0.2869 -0.1885
17662PP      PP27766   9.770   2.311  13.376 -0.1000 -0.4275  0.1327
17663PP      PP27767   8.414   2.857   2.199  0.1049  0.0198 -0.0390
17664PP      PP27768   1.683   6.099  12.707  0.1031  0.0052 -0.1225
17665PP      PP27769   6.480  12.637   0.058 -0.2213 -0.0235  0.1725
17666PP      PP27770  10.253   8.080  11.608 -0.0800  0.0213 -0.1246
17667PP      PP27771  13.886  11.419   2.075 -0.2250 -0.4082  0.0881
17668PP      PP27772   5.379   0.279   2.998 -0.2062  0.0641 -0.2226
17669PP      PP27773  11.955   9.733   3.028  0.2133 -0.1538 -0.1614
17670PP      PP27774   8.488   7.351  12.886  0.0578 -0.1958 -0.3316
17671PP      PP27775  14.903   8.312  11.027 -0.0569  0.0376 -0.2697
17672PP      PP27776   2.403   9.590  10.647 -0.0670  0.0100  0.4689
17673PP      PP27777   6.810   6.279   1.704 -0.0857 -0.4331  0.0494
17674PP      PP27778   8.200  13.166  12.378  0.0147  0.0407 -0.1366
17675PP      PP27779  10.504  10.463  13.408  0.4399 -0.0685 -0.0877
17676PP      PP27780  10.108  11.518  11.015 -0.0178  0.2182  0.1462
17677PP      PP27781   5.492   6.251   0.227 -0.1637  0.3628 -0.2239
17678PP      PP27782  14.140   2.416   8.729  0.2729 -0.0492  0.2024
17679PP      PP27783   3.243  15.209   3.530 -0.1192 -0.1286 -0.0551
17680PP      PP27784  12.698   3.122  12.451  0.0775  0.0969 -0.0141
17681PP      PP27785   4.499  13.722   1.452  0.1543  0.0563 -0.3008
17682PP      PP27786   5.357   4.315   3.075 -0.1114 -0.0464 -0.2103
17683PP      PP27787   0.645   4.569  11.662  0.1599  0.1681 -0.1922
17684PP      PP27788   9.868   5.792   3.275 -0.3575 -0.0717 -0.2663
17685PP      PP27789   0.545   6.093  12.186  0.0731  0.0364  0.2426
17686PP      PP27790   4.169   0.625  13.475  0.0310 -0.0442  0.0825
17687PP      PP27791   5.053   5.391  10.068 -0.3565  0.2645  0.0016
17688PP      PP27792   0.589   0.922  11.335  0.0111 -0.2397 -0.2383
17689PP      PP27793   4.791  10.818  12.778 -0.0623  0.2598 -0.3932
17690PP      PP27794  14.406   0.257   3.673 -0.1046  0.0651 -0.0665
17691PP      PP27795  11.193  15.219   2.068 -0.0864  0.0391  0.1656
17692PP      PP27796   4.374   8.039  10.312 -0.2623 -0.1692  0.0017
17693PP      PP27797   6.773   7.829   1.806  0.1370  0.0784 -0.1737
17694PP      PP27798  10.587   0.511  13.076  0.0118  0.0739  0.0019
17695PP      PP27799   4.764   9.312   8.677 -0.1006  0.1551  0.0157
17696PP      PP27800   2.606   0.649  12.101 -0.2047  0.0708 -0.2960
17697PP      PP27801  11.594   9.800  10.866 -0.0281  0.2162  0.0410
17698PP      PP27802   0.646   2.530  12.682  0.1250  0.2257  0.1449
17699PP      PP27803  11.359  13.549   9.849 -0.1768  0.0308  0.3389
17700PP      PP27804  10.041   6.016  10.679  0.3511 -0.0942 -0.2217
17701PP      PP27805   3.854  11.430   2.356 -0.1383  0.0827  0.0914
17702PP      PP27806   3.482   7.873  12.459  0.4947  0.2698  0.3017
17703PP      PP27807   7.671  12.360  11.159  0.0316 -0.1814 -0.1646
17704PP      PP27808   9.671   6.894  13.272 -0.4102 -0.1323 -0.0258
17705PP      PP27809   8.069  10.545   2.058  0.2577  0.2565 -0.1302
17706PP      PP27810  14.378   0.062   0.719 -0.0792  0.0123 -0.3136
17707PP      PP27811   0.230   9.534   0.827  0.1060 -0.1431  0.2990
17708PP      PP27812   5.793  10.347   8.121 -0.0324  0.1094 -0.0175
17709PP      PP27813   7.813   8.529  12.284  0.0285  0.0410 -0.1219
17710PP      PP27814  15.112   4.696   9.364 -0.3646  0.0502 -0.0273
17711PP      PP27815   1.053   6.323   0.876 -0.2159  0.0213  0.0651
17712PP      PP27816  10.681   8.046  10.676 -0.1643  0.1471 -0.2425
17713PP      PP27817   5.996   9.857   8.743 -0.0963  0.0355  0.3493
17714PP      PP27818  12.696   8.191   2.793 -0.2831 -0.1707 -0.3480
17715PP      PP27819  11.466  14.763   2.143 -0.0852  0.0675  0.0056
17716PP      PP27820  13.853   4.454  10.856 -0.0135 -0.0825  0.4045
17717PP      PP27821   7.180   2.946  10.967  0.0649 -0.0262  0.0780
17718PP      PP27822  12.988   7.069   7.729 -0.1000  0.2607  0.0990
17719PP      PP27823   8.868   4.144  10.609 -0.2215  0.1095 -0.0050
17720PP      PP27824   3.604   6.411   9.862 -0.2695 -0.3177  0.0257
17721PP      PP27825   6.402  14.683  10.530 -0.1486 -0.0246  0.2269
17722PP      PP27826   4.188  15.742  13.262  0.0802 -0.4865  0.0466
17723PP      PP27827   1.887  14.212   2.564 -0.3400 -0.0527  0.1247
17724PP      PP27828  11.351  12.651  11.460  0.0947 -0.0231  0.0959
17725PP      PP27829  10.197   1.680   3.236  0.1371 -0.0143  0.0329
17726PP      PP27830   4.934   3.793   3.140 -0.1862  0.0158  0.0678
17727PP      PP27831  14.483   4.080   8.454 -0.1440  0.0558  0.3474
17728PP      PP27832   0.815   6.077   2.300 -0.0690  0.1259 -0.1025
17729PP      PP27833   3.691  14.233   3.554 -0.0614  0.1792  0.0933
17730PP      PP27834  12.038  11.524  11.195 -0.1612  0.1843  0.0285
17731PP      PP27835  11.169   6.769  11.985  0.1087  0.0648 -0.0627
17732PP      PP27836  13.597   5.641  10.399 -0.1164  0.1980 -0.0211
17733PP      PP27837  13.956   4.384   0.113  0.0171  0.0350  0.0781
17734PP      PP27838  12.807   9.716   9.379 -0.0325 -0.3888 -0.0891
17735PP      PP27839  14.296   3.786   8.961 -0.0285 -0.2910 -0.4272
17736PP      PP27840   4.892   3.091   2.107 -0.1823 -0.0582  0.1427
17737PP      PP27841  13.243   5.098  13.038  0.2565 -0.1425 -0.0062
17738PP      PP27842   8.552   5.787  10.152  0.2863  0.0311 -0.1780
17739PP      PP27843   6.428  11.613   1.881  0.0433 -0.1724  0.0898
17740PP      PP27844   6.840  10.535  10.278 -0.1533  0.1432 -0.0399
17741PP      PP27845   7.602   1.609   0.623  0.2302 -0.1396  0.2450
17742PP      PP27846  15.240  14.003   3.164  0.1837  0.0423  0.0228
17743PP      PP27847   2.184   2.000  12.134 -0.1494  0.0024  0.3616
17744PP      PP27848  14.890   5.595   1.911  0.1699  0.1418 -0.0581
17745PP      PP27849  10.459   0.577  12.110 -0.2020 -0.2066 -0.1406
17746PP      PP27850  12.259  14.218   1.124 -0.0058 -0.1836 -0.2979
17747PP      PP27851   7.487  12.372   9.899 -0.4489 -0.0377 -0.2471
17748PP      PP27852   3.210   0.873  12.423 -0.1993  0.0219 -0.0025
17749PP      PP27853   4.655   9.007  13.142  0.1491 -0.1199 -0.0114
17750PP      PP27854  15.572   2.455  10.294  0.1836 -0.1196  0.1259
17751PP      PP27855   9.587   8.115  11.116  0.2634 -0.1010 -0.1731
17752PP      PP27856  13.251  13.267  12.985  0.0395  0.1488 -0.1398
17753PP      PP27857   8.615  15.551   3.905 -0.0547  0.0500 -0.1013
17754PP      PP27858  13.577   9.039   9.297 -0.1015  0.0709  0.1072
17755PP      PP27859   2.797   7.955   8.984 -0.1386  0.4276  0.3409
17756PP      PP27860   5.435   5.757   0.446 -0.0584  0.1620 -0.0858
17757PP      PP27861   7.454  11.339   3.738 -0.3073  0.1988  0.0139
17758PP      PP27862  15.246  12.902   2.603 -0.0184  0.2618  0.0568
17759PP      PP27863  15.526  11.239   1.503  0.2927 -0.3185 -0.2269
17760PP      PP27864   4.453  12.156  13.401  0.0231 -0.1201 -0.0351
17761PP      PP27865  12.922  12.983   3.877  0.0977  0.0009 -0.1687
17762PP      PP27866  11.598   9.736   9.773  0.0384 -0.0878 -0.2967
17763PP      PP27867  10.595   8.248   9.758  0.1076 -0.1578 -0.1631
17764PP      PP27868   8.175   2.620  13.364  0.0738  0.2282  0.1119
17765PP      PP27869   6.104   4.029   1.805  0.1033  0.0646  0.2008
17766PP      PP27870  12.226   7.449   9.736  0.0086 -0.1094  0.0305
17767PP      PP27871  15.330   2.269   1.126 -0.0967  0.1663 -0.0321
17768PP      PP27872   1.835  15.034  11.551 -0.2905 -0.0833 -0.3528
17769PP      PP27873  10.376  15.805   4.552 -0.0370  0.2680 -0.1148
17770PP      PP27874  15.883   7.353   1.790  0.3078  0.0713  0.0791
17771PP      PP27875  10.553  13.896  10.221 -0.0051 -0.1774 -0.2234
17772PP      PP27876  13.592  10.217  13.325 -0.2034  0.0964 -0.1395
17773PP      PP27877   1.355  14.978   3.816 -0.0596  0.0409 -0.3083
17774PP      PP27878   5.251   7.094  12.485  0.1789 -0.1525 -0.2274
17775PP      PP27879   2.494   7.665   3.104 -0.0578 -0.1765  0.0648
17776PP      PP27880   4.511   7.713  12.770  0.1348  0.0532 -0.2785
17777PP      PP27881   1.615   3.362   0.298 -0.1206  0.1397  0.1213
17778PP      PP27882  13.980   2.140  11.430  0.1339 -0.0902  0.0524
17779PP      PP27883   1.567  11.067  10.957 -0.1182 -0.1317  0.2839
17780PP      PP27884   2.968   6.127   2.259 -0.0807 -0.0561  0.2016
17781PP      PP27885   3.893   7.878   4.059  0.0510  0.3282  0.1372
17782PP      PP27886  13.162   5.986   8.725  0.1113  0.0185  0.1525
17783PP      PP27887  14.198  14.680   0.953  0.1407  0.2613  0.0430
17784PP      PP27888  12.148  10.834   3.628  0.3150  0.1510 -0.0247
17785PP      PP27889  11.450   2.471  12.138 -0.0784 -0.0427 -0.0935
17786PP      PP27890  14.900   5.241   2.517  0.1470 -0.3667  0.3603
17787PP      PP27891  11.649   6.600   2.856 -0.3022 -0.1774  0.0312
17788PP      PP27892   1.860  13.788   0.396 -0.1304 -0.1687 -0.1252
17789PP      PP27893   0.044   0.196  12.618  0.0049  0.1832  0.0878
17790PP      PP27894   7.969  11.934   9.197 -0.0939 -0.0694 -0.2220
17791PP      PP27895   5.136  14.362   2.760  0.2314 -0.1169 -0.0173
17792PP      PP27896  12.672   7.681   3.394 -0.3318 -0.0133  0.0597
17793PP      PP27897  11.927  12.239  12.827 -0.4780  0.3387  0.1301
17794PP      PP27898   4.834  11.907   1.580 -0.2001  0.1488 -0.1301
17795PP      PP27899  13.114  10.191  13.105  0.0373  0.1466 -0.1187
17796PP      PP27900   1.602   5.599   3.067 -0.0943  0.2914 -0.3459
17797PP      PP27901   3.946   1.456   4.515 -0.2716  0.1903  0.0184
17798PP      PP27902   5.996   7.120   1.529  0.0949 -0.1204 -0.0986
17799PP      PP27903   3.034  10.563   9.661  0.1876  0.2931 -0.3149
17800PP      PP27904  11.594   4.212   9.225 -0.0903  0.1714  0.0125
17801PP      PP27905  11.382   5.412  11.974  0.2749 -0.1639  0.0789
17802PP      PP27906  10.805   7.178   1.218  0.2697  0.1546 -0.1813
17803PP      PP27907  10.215  11.510   3.745  0.0362 -0.0967  0.0602
17804PP      PP27908   0.261   2.244  12.518 -0.0478  0.3520 -0.0275
17805PP      PP27909   1.547   6.388  11.917  0.1900 -0.2104  0.1202
17806PP      PP27910  15.427   0.159   1.750 -0.0032  0.0747 -0.1052
17807PP      PP27911  10.283  12.402  10.703 -0.0011 -0.2441 -0.1173
17808PP      PP27912   5.814   4.258  12.764 -0.0476  0.1800 -0.0148
17809PP      PP27913   2.370   2.565   9.692  0.1692 -0.2361 -0.1880
17810PP      PP27914  15.591   6.123   1.326 -0.2707 -0.4096 -0.1582
17811PP      PP27915   7.617   9.156   1.535  0.0143 -0.1099 -0.0698
17812PP      PP27916   9.861   8.816   4.018  0.1429  0.0081  0.2125
17813PP      PP27917   9.090  14.168  11.168  0.2956 -0.3541 -0.0883
17814PP      PP27918   4.557   7.419   8.518 -0.1857  0.0226  0.1385
17815PP      PP27919  14.711  11.714   0.556 -0.0348 -0.2533 -0.3191
17816PP      PP27920   1.493  10.494   1.391 -0.4135 -0.1730 -0.0107
17817PP      PP27921   4.969  15.851  10.106 -0.1123 -0.0657  0.1592
17818PP      PP27922  15.368   2.318   2.792  0.3410 -0.2928 -0.0779
17819PP      PP27923  13.887   9.605  12.673 -0.3446  0.1844 -0.2817
17820PP      PP27924   5.441   8.455  10.019  0.2376  0.1340 -0.0607
17821PP      PP27925   9.818  10.825  11.319  0.1191 -0.5920  0.2604
17822PP      PP27926  11.400   9.106   3.228 -0.1438 -0.0600 -0.3380
17823PP      PP27927   4.718   7.235   1.900  0.2416 -0.0544  0.2571
17824PP      PP27928  10.324   6.050   2.261 -0.1118 -0.2986  0.4222
17825PP      PP27929  10.261  14.531   0.012  0.1042  0.1143 -0.1268
17826PP      PP27930   5.860   0.131  11.036  0.2187 -0.1386 -0.0422
17827PP      PP27931   8.087  10.981   9.635  0.0034  0.1757 -0.2266
17828PP      PP27932   9.538  10.046  13.049 -0.0778  0.1498  0.0774
17829PP      PP27933   9.581   1.439   4.936 -0.3642 -0.0952 -0.2147
17830PP      PP27934  12.910  14.796  11.852 -0.2040  0.2538  0.1838
17831PP      PP27935   0.974   0.657   0.335  0.0500 -0.2901 -0.1565
17832PP      PP27936   1.734   7.665   3.391 -0.0647 -0.0525 -0.2080
17833PP      PP27937   7.524   2.301   3.523  0.2208  0.2103 -0.0290
17834PP      PP27938  14.468   7.055  11.415 -0.0865  0.1279 -0.0400
17835PP      PP27939  14.509  13.910   9.567  0.2017  0.1898  0.0534
17836PP      PP27940   5.779   8.904   0.866 -0.1018 -0.1626  0.2963
17837PP      PP27941  14.968   4.232   1.559  0.1183  0.2302 -0.1744
17838PP      PP27942  15.639   5.681   1.007 -0.2846 -0.0230 -0.0486
17839PP      PP27943  12.538   4.625   3.637  0.1172 -0.1468 -0.0611
17840PP      PP27944  14.682  13.779   0.129  0.1544 -0.0081  0.0313
17841PP      PP27945   3.082   5.746  12.568  0.1804 -0.3104  0.0269
17842PP      PP27946  15.181   3.949   1.161  0.0039 -0.1324 -0.0344
17843PP      PP27947   5.178   2.417  13.046 -0.2986  0.1575 -0.2188
17844PP      PP27948   3.689  10.132  10.231  0.0226 -0.2204 -0.0001
17845PP      PP27949   8.883   6.352   1.708  0.2137 -0.0291  0.0231
17846PP      PP27950   9.001  15.356   4.444  0.1098 -0.0217 -0.0264
17847PP      PP27951  15.607  10.833  13.219 -0.0516 -0.3059  0.1053
17848PP      PP27952   4.182   0.169  11.527 -0.3620 -0.2694 -0.0531
17849PP      PP27953  12.094   6.360   9.720  0.1007  0.0718 -0.2383
17850PP      PP27954   8.459   5.591   9.565  0.0063 -0.1541 -0.2572
17851PP      PP27955   7.407  12.597   1.581 -0.0814  0.1592  0.0875
17852PP      PP27956   4.364  13.811   0.915 -0.0867 -0.3791 -0.0419
17853PP      PP27957   5.561  15.764   9.619  0.2197 -0.0596  0.3128
17854PP      PP27958  13.983   1.942   2.820 -0.1355  0.1138  0.2280
17855PP      PP27959   8.100  10.332  11.984  0.2764 -0.2571 -0.3876
17856PP      PP27960   9.972   9.323   3.653 -0.2578  0.0246  0.1062
17857PP      PP27961   7.509   9.908   2.000  0.3464 -0.2335 -0.1251
17858PP      PP27962   8.982   4.933   0.012 -0.0238 -0.1582  0.4130
17859PP      PP27963   8.541   0.225   2.200  0.2989 -0.0740  0.1131
17860PP      PP27964  15.169   4.169  11.569 -0.0223 -0.1029  0.1263
17861PP      PP27965   7.769  11.258  12.484  0.3110 -0.0494  0.1504
17862PP      PP27966  14.824  11.266   2.567 -0.2903 -0.0303  0.1155
17863PP      PP27967  13.840   0.221   0.983 -0.1503 -0.0029  0.0151
17864PP      PP27968   9.866   3.952   2.999 -0.2380 -0.3044  0.3162
17865PP      PP27969   6.518   5.675   3.123  0.3119 -0.1915 -0.0439
17866PP      PP27970   0.208   6.513   3.546  0.2379  0.3291 -0.0968
17867PP      PP27971   8.760  12.675   3.057  0.0669 -0.0352  0.1064
17868PP      PP27972   6.644   1.139  12.016  0.0117  0.0446 -0.3248
17869PP      PP27973   4.035  13.771   9.129 -0.0276  0.3803  0.1571
17870PP      PP27974  11.538  14.071   0.637  0.0176  0.2540 -0.0074
17871PP      PP27975  14.802   9.673   0.321 -0.2385 -0.3747  0.1997
17872PP      PP27976   7.913   6.341  11.062  0.2503  0.2520  0.0431
17873PP      PP27977   3.012   5.554   3.221 -0.1189  0.0873  0.0387
17874PP      PP27978   5.310   7.287  10.220 -0.0738  0.1363 -0.1820
17875PP      PP27979   6.897   4.342  10.242  0.1494  0.1560 -0.2797
17876PP      PP27980   5.138  10.576   0.702  0.1506  0.1213  0.3706
17877PP      PP27981   8.422   5.046  12.536 -0.0965 -0.1077  0.1189
17878PP      PP27982   4.041   6.768  10.717  0.0640  0.1731 -0.2289
17879PP      PP27983  12.178   4.146   2.080  0.2387 -0.5704 -0.4320
17880PP      PP27984   6.805   7.290   9.138  0.0679  0.1821 -0.5230
17881PP      PP27985   4.422   6.159   9.175 -0.2434  0.0004 -0.0152
17882PP      PP27986   3.058  11.943   9.442  0.0449  0.1974 -0.1241
17883PP      PP27987   5.274   7.584  11.731  0.2994  0.3029  0.0716
17884PP      PP27988   1.085   0.419  10.477 -0.0106  0.1071 -0.0343
17885PP      PP27989   6.555   6.816   4.059  0.2064  0.3003  0.2736
17886PP      PP27990  11.884   7.332  12.231 -0.1564 -0.1503  0.2177
17887PP      PP27991  12.344  12.592  12.484  0.3028 -0.0328 -0.2353
17888PP      PP27992   3.558   1.842   9.806 -0.1819  0.0441  0.1126
17889PP      PP27993   2.256   7.468   1.639  0.2117  0.4940 -0.0545
17890PP      PP27994   1.412   9.629  10.516 -0.3036  0.1716 -0.0082
17891PP      PP27995   7.701  13.559   9.200  0.2405  0.1432 -0.2757
17892PP      PP27996   7.259  14.853   8.926 -0.0027  0.0752 -0.0821
17893PP      PP27997   0.201   8.186   0.254 -0.0912  0.0159  0.3611
17894PP      PP27998   1.295  10.159  12.901 -0.0577 -0.5672 -0.2957
17895PP      PP27999   9.475   0.288   0.562 -0.1568  0.0308  0.1653
17896PP      PP28000  10.700  13.921   8.934  0.0074 -0.0060 -0.0569
17897PP      PP28001   7.926   5.828  11.255 -0.0456  0.1333  0.4396
17898PP      PP28002  13.085  14.337  11.666  0.1867 -0.2603 -0.2255
17899PP      PP28003  11.260   2.518  10.845 -0.0390  0.0955  0.3410
17900PP      PP28004  14.901   7.236  11.142  0.2621 -0.0116 -0.2020
17901PP      PP28005   3.880  11.116  10.556 -0.1375  0.1247  0.2051
17902PP      PP28006  12.491   8.843   1.602  0.2890  0.2778  0.0823
17903PP      PP28007   0.690  12.462   4.027  0.0063 -0.3486  0.3643
17904PP      PP28008   7.570   3.238   9.155  0.0730 -0.1598 -0.1737
17905PP      PP28009   7.135   8.619   0.543 -0.2317 -0.0790 -0.0105
17906PP      PP28010  12.658  10.284   1.454 -0.1291  0.0167  0.2715
17907PP      PP28011  15.181  10.521   3.022  0.0273 -0.3521 -0.0815
17908PP      PP28012  11.773   3.890  11.167  0.4500 -0.1312  0.2772
17909PP      PP28013  15.349   9.808   2.659 -0.2900 -0.3857  0.0410
17910PP      PP28014  15.764  13.127  13.131 -0.2509  0.0129 -0.3571
17911PP      PP28015   6.669   8.791   1.388  0.2776 -0.1868  0.0009
17912PP      PP28016   7.903  10.424   8.942 -0.2020 -0.1150  0.1341
17913PP      PP28017   9.346  14.102   9.093  0.1258 -0.0841 -0.5048
17914PP      PP28018   7.747  11.449   2.106 -0.1097 -0.0374 -0.0374
17915PP      PP28019   5.923   7.998  12.363 -0.1518  0.2131 -0.3047
17916PP      PP28020   0.462   7.424   9.620  0.0825  0.0650  0.0177
17917PP      PP28021  12.311   3.819   0.735 -0.1015  0.1630 -0.1415
17918PP      PP28022   2.092  12.768  12.119  0.0800 -0.0914 -0.1741
17919PP      PP28023   2.497  13.497   1.088 -0.1304 -0.3387 -0.2221
17920PP      PP28024   3.452   5.898   4.313 -0.0181 -0.2107 -0.2058
17921PP      PP28025   2.053   5.811   3.118  0.1040  0.0598  0.0859
17922PP      PP28026   3.852   1.557   9.403  0.1961  0.4972 -0.3366
17923PP      PP28027   5.907   7.759   8.932  0.1629  0.0107  0.0690
17924PP      PP28028   1.805   8.797   3.166  0.1300 -0.0146 -0.1341
17925PP      PP28029   8.180   6.845  10.290  0.2264  0.2289  0.4018
17926PP      PP28030   1.475   0.799  10.552 -0.1377 -0.1506 -0.0021
17927PP      PP28031   7.289   2.021   2.021  0.4051  0.4307  0.0719
17928PP      PP28032  13.081   3.546   8.725  0.1458  0.0581 -0.0946
17929PP      PP28033   5.852   8.165   0.786 -0.0238 -0.1605 -0.1334
17930PP      PP28034   0.876  12.619   2.273  0.1544  0.1157  0.2480
17931PP      PP28035  10.901   3.789  12.917 -0.1548  0.1390 -0.0921
17932PP      PP28036   4.775   0.608   0.779  0.2568  0.3466 -0.0793
17933PP      PP28037  13.054  15.204  12.045 -0.1602 -0.0709 -0.2230
17934PP      PP28038   3.006  12.539   9.536 -0.0398 -0.0523 -0.1934
17935PP      PP28039   8.973   8.238   9.155 -0.0805  0.2977 -0.0941
17936PP      PP28040  11.855  12.863   2.135  0.2874 -0.0272  0.3294
17937PP      PP28041   0.440   7.921  12.944 -0.0394  0.1516 -0.0758
17938PP      PP28042   8.986   6.841   1.574 -0.0230 -0.0646  0.0525
17939PP      PP28043  10.814  10.390   9.748  0.0743 -0.0873 -0.1759
17940PP      PP28044   8.360  14.986   1.330  0.1917  0.1256 -0.4462
17941PP      PP28045   7.225   3.604   9.269 -0.0381  0.0297  0.0071
17942PP      PP28046  10.446  10.857  10.531  0.1127 -0.2377 -0.1532
17943PP      PP28047  13.406   0.544   3.276  0.3005  0.2399 -0.0830
17944PP      PP28048   4.263  15.043   0.985  0.0793 -0.4704  0.0985
17945PP      PP28049  10.410   2.337   0.258  0.2261 -0.0973  0.0117
17946PP      PP28050   0.628   3.282   4.311 -0.0578  0.0137 -0.0330
17947PP      PP28051  10.127  12.332   4.308  0.0096 -0.0383 -0.0004
17948PP      PP28052   1.148   6.257   4.497  0.0119  0.0251  0.0269
17949PP      PP28053   2.737   1.280   0.240  0.3228  0.0211  0.2558
17950PP      PP28054   4.253  15.407   0.068  0.1867 -0.0866  0.1035
17951PP      PP28055   2.632   1.768   0.083 -0.0089  0.1758  0.0036
17952PP      PP28056   9.501  10.149   0.977  0.3008  0.1135 -0.1912
17953PP      PP28057   1.901  11.665   2.163  0.1461 -0.2054 -0.3183
17954PP      PP28058   9.985   6.589  13.431 -0.4497 -0.0294 -0.0994
17955PP      PP28059  12.437   0.155   0.338 -0.1460 -0.1569 -0.0212
17956PP      PP28060   0.385   4.316   8.810  0.2578 -0.2397 -0.2124
17957PP      PP28061  10.102  14.768   9.294 -0.0412 -0.2075  0.0696
17958PP      PP28062   2.494  15.224   0.661 -0.4160  0.0908  0.1334
17959PP      PP28063  14.151   6.524  10.602  0.0887 -0.0656 -0.3140
17960PP      PP28064  11.896   4.619   9.079 -0.1441 -0.0919  0.2158
17961PP      PP28065   2.991  12.377  10.334  0.0647  0.2412  0.0341
17962PP      PP28066   0.265  15.572  10.451 -0.0430  0.0253 -0.1010
17963PP      PP28067   1.721   2.464   2.624 -0.0937  0.1954 -0.0694
17964PP      PP28068   8.143  14.617  13.074  0.0454  0.1395  0.1707
17965PP      PP28069  14.760   5.147  10.031  0.1371  0.0502 -0.2435
17966PP      PP28070   5.150   3.923  11.564  0.1248  0.0430  0.4216
17967PP      PP28071  11.619  13.256   3.654 -0.1018 -0.2532  0.0799
17968PP      PP28072  14.068   1.358   0.617  0.0384 -0.1018  0.0020
17969PP      PP28073  13.997   5.504  12.600 -0.1468 -0.0062 -0.2029
17970PP      PP28074  12.206   4.612   3.120  0.0694  0.1295  0.1479
17971PP      PP28075   7.517  10.454  13.308 -0.0729 -0.3881  0.1500
17972PP      PP28076   8.460   8.164  11.261  0.1151 -0.1122 -0.3774
17973PP      PP28077   2.385  12.311  13.340 -0.0058 -0.0425  0.1568
17974PP      PP28078   3.735   9.235  10.033  0.1734 -0.1580 -0.2306
17975PP      PP28079  14.485  15.354   1.150  0.1963  0.1239  0.2870
17976PP      PP28080   4.283   7.785   2.361  0.1278 -0.1104 -0.1185
17977PP      PP28081   3.750  13.679   3.246 -0.2564 -0.2139 -0.2842
17978PP      PP28082   4.875   5.475   4.071  0.0969  0.2343 -0.3783
17979PP      PP28083  13.068   7.198  11.218  0.2111  0.0063 -0.0084
17980PP      PP28084   4.346   4.663  10.930 -0.0559 -0.1151  0.1855
17981PP      PP28085   0.568   7.173   3.316  0.0972  0.2485  0.1000
17982PP      PP28086   3.844  11.450   3.658  0.2895  0.0450  0.0048
17983PP      PP28087   1.593   5.958   2.688 -0.0671 -0.3667 -0.3794
17984PP      PP28088  13.157  14.513   4.864  0.2514  0.0503 -0.0736
17985PP      PP28089   0.448  14.401  12.065 -0.1748  0.3107 -0.1006
17986PP      PP28090  14.509  10.760   3.671 -0.1089  0.2315 -0.1932
17987PP      PP28091   7.790   4.260   8.737  0.3011 -0.2427  0.2618
17988PP      PP28092  10.191   6.543   0.706 -0.1843  0.2160 -0.2900
17989PP      PP28093  12.812   0.221   9.045  0.0387 -0.1200  0.2183
17990PP      PP28094   6.188   6.785   4.384  0.0811  0.1849  0.0655
17991PP      PP28095   4.430   8.611  11.103  0.0011  0.2801 -0.1817
17992PP      PP28096  13.004  10.938  11.597  0.3154 -0.1886 -0.3922
17993PP      PP28097   1.319   8.373   1.263 -0.1995  0.0327 -0.0068
17994PP      PP28098  12.800  15.692   3.648 -0.0378 -0.0136 -0.2570
17995PP      PP28099   9.724   5.120  10.082  0.0529  0.0473  0.1908
17996PP      PP28100   8.300   3.200   3.858  0.3277 -0.2621  0.0483
17997PP      PP28101   6.618   0.555   9.197 -0.1619  0.0807  0.1476
17998PP      PP28102  14.328   9.928  12.058  0.1174 -0.0101 -0.0638
17999PP      PP28103  10.673  13.475   2.118  0.3598  0.0963 -0.0699
18000PP      PP28104  15.123   4.571   8.838  0.1472  0.0903 -0.0755
18001PP      PP28105  10.429  14.854   8.860  0.1286 -0.1051  0.1235
18002PP      PP28106   2.843   7.757  11.696 -0.0446  0.0157 -0.4110
18003PP      PP28107   6.672   4.091  13.158  0.5090 -0.1067  0.0296
18004PP      PP28108   3.092   9.028   3.089  0.1489  0.0199 -0.3598
18005PP      PP28109  10.141  14.923   4.243  0.2719 -0.2685  0.2231
18006PP      PP28110  13.777   3.440  10.112 -0.0216 -0.1796 -0.0775
18007PP      PP28111   2.873  15.262   3.820  0.2073  0.0320 -0.0406
18008PP      PP28112   0.559  14.559   3.996 -0.0440  0.0412 -0.2210
18009PP      PP28113   6.377   9.510   8.898  0.1141 -0.1362 -0.0261
18010PP      PP28114   5.451   6.689   9.799  0.3670  0.0278 -0.3339
18011PP      PP28115  15.229  14.502   3.162  0.0150 -0.1877 -0.0745
18012PP      PP28116  10.605   6.571  10.794  0.0463 -0.1469 -0.2628
18013PP      PP28117   5.851   3.306   2.478  0.0745  0.0190  0.1182
18014PP      PP28118   1.287  13.224   0.814 -0.1406 -0.0261  0.2391
18015PP      PP28119  13.709  12.285  12.277  0.2814 -0.2300 -0.0439
18016PP      PP28120   2.109   9.587   3.702  0.2846  0.1543  0.0575
18017PP      PP28121   4.287   4.623   0.967  0.2128 -0.0433 -0.1276
18018PP      PP28122   5.205  10.351   4.281  0.0473 -0.3450  0.1471
18019PP      PP28123  15.844   0.139  11.168 -0.0626 -0.1250  0.0376
18020PP      PP28124   3.779   9.396   4.135  0.3355 -0.0251  0.4538
18021PP      PP28125   9.659   0.008  10.700 -0.0858 -0.1025 -0.1101
18022PP      PP28126   2.754   4.993   3.019  0.1761  0.1126 -0.0563
18023PP      PP28127   1.460   0.340  10.827 -0.2859 -0.1415  0.2515
18024PP      PP28128   1.464   9.573   4.344  0.2401  0.1689 -0.2580
18025PP      PP28129   5.848   9.933   1.009 -0.0784 -0.0363  0.0553
18026PP      PP28130   2.860   4.870  12.757  0.0720 -0.0286  0.0140
18027PP      PP28131  10.996   6.979   0.792  0.2084  0.1076 -0.1534
18028PP      PP28132   3.627   8.885  13.185 -0.0168  0.0236 -0.1776
18029PP      PP28133   5.318   2.783   5.179 -0.1446  0.0009  0.0396
18030PP      PP28134   6.228   4.192  10.334 -0.0866  0.0510 -0.1312
18031PP      PP28135   0.761   6.820  10.217  0.0735 -0.2908 -0.0600
18032PP      PP28136   8.917   8.549   0.658  0.0731 -0.0572  0.2337
18033PP      PP28137   0.719  11.029  10.521  0.0612 -0.3207 -0.1583
18034PP      PP28138   1.640   5.600  12.818  0.1737 -0.0851  0.0522
18035PP      PP28139  12.081   1.989   0.040 -0.3737  0.1992  0.0492
18036PP      PP28140  14.177   2.886   0.139  0.1517 -0.1236 -0.1345
18037PP      PP28141   4.225   6.489   3.582  0.1487 -0.3361  0.3035
18038PP      PP28142  10.201  11.331  13.284  0.2929 -0.3191 -0.1675
18039PP      PP28143   1.028   3.201  10.957 -0.0620  0.1539 -0.2265
18040PP      PP28144   8.159   2.179  10.911  0.1319  0.1870 -0.2196
18041PP      PP28145  11.112   1.291   0.548  0.0890 -0.0931  0.2660
18042PP      PP28146   6.255   6.817   1.188 -0.0949  0.0796  0.1454
18043PP      PP28147   2.319   8.027  12.532 -0.4239 -0.1946 -0.1601
18044PP      PP28148   8.571   9.878   3.470 -0.1837  0.2982 -0.1456
18045PP      PP28149   8.535   2.647  13.032  0.1551  0.0587 -0.1952
18046PP      PP28150  12.675   1.027  12.430 -0.2211  0.4256 -0.2128
18047PP      PP28151   7.096   4.560   1.768 -0.0620  0.0840 -0.0638
18048PP      PP28152  13.130   6.214   3.015  0.1374 -0.1616  0.1293
18049PP      PP28153   6.623   6.030   8.821  0.1005 -0.3243 -0.0449
18050PP      PP28154  11.138   8.418   8.105  0.1126  0.1921  0.1859
18051PP      PP28155   4.539   9.875   3.793 -0.0758 -0.1552  0.1097
18052PP      PP28156  12.265   6.262   8.640  0.1489 -0.0226  0.1782
18053PP      PP28157   0.022   3.011   3.115  0.1656 -0.3469  0.1271
18054PP      PP28158   9.192   5.491   2.720  0.1623  0.0303 -0.0106
18055PP      PP28159   1.780   4.515  10.622 -0.2503  0.3476  0.2486
18056PP      PP28160   7.827   3.898   3.401 -0.1318  0.3509 -0.0483
18057PP      PP28161   2.940   5.945  11.995 -0.2242  0.2199  0.0132
18058PP      PP28162  10.102   1.470   2.347 -0.0472  0.3943 -0.0563
18059PP      PP28163   5.898   7.092   3.653 -0.1255 -0.2749  0.2399
18060PP      PP28164   4.988  10.162   3.805 -0.3481 -0.0884  0.1964
18061PP      PP28165   7.101   9.017  11.695  0.2218  0.1826  0.0373
18062PP      PP28166   9.949  13.041   1.920 -0.1844 -0.1175  0.1289
18063PP      PP28167  14.771  14.135  13.272  0.1735 -0.1453  0.1446
18064PP      PP28168   6.457  14.965   1.855 -0.4210 -0.1913 -0.1849
18065PP      PP28169   8.905   0.217   9.956  0.2604  0.0252 -0.0241
18066PP      PP28170  11.433   4.688   1.668  0.1444 -0.0379  0.0519
18067PP      PP28171  10.045  12.094   2.294 -0.0271 -0.3116  0.2444
18068PP      PP28172   2.988  14.553  10.061  0.0412  0.0297 -0.0537
18069PP      PP28173   0.881   1.424  12.128  0.0134 -0.0125  0.1922
18070PP      PP28174   7.604   0.440  12.619 -0.2509 -0.3057 -0.2991
18071PP      PP28175  11.502  14.174   0.028 -0.2618  0.0608  0.0152
18072PP      PP28176   5.995   5.320  11.963  0.2148  0.0723  0.1124
18073PP      PP28177  13.955   3.223  13.270  0.1726  0.0330 -0.1595
18074PP      PP28178   2.330   6.522  11.873 -0.0888  0.0429 -0.0251
18075PP      PP28179   3.615   8.306  12.934  0.1666 -0.0780 -0.0028
18076PP      PP28180   2.118  15.627   1.371  0.0665  0.3954 -0.1654
18077PP      PP28181  14.433   5.321  12.652  0.0808  0.0589 -0.1966
18078PP      PP28182  13.892   6.432  12.908  0.1547 -0.0105  0.2164
18079PP      PP28183   2.826   8.290   9.367 -0.1285  0.0617  0.2860
18080PP      PP28184   5.611   1.512  12.840  0.0298  0.0373  0.2380
18081PP      PP28185  12.594   4.639  10.285  0.1600  0.0952 -0.0656
18082PP      PP28186   4.235   8.467  10.064  0.0063  0.2092  0.1580
18083PP      PP28187   7.649   3.409   8.639  0.0827  0.1105  0.1063
18084PP      PP28188   7.672   2.345  10.951  0.2406 -0.0468 -0.4550
18085PP      PP28189   5.639  11.237  12.189 -0.1956 -0.2480  0.0697
18086PP      PP28190   2.451   7.319  11.871 -0.2764 -0.0208  0.3064
18087PP      PP28191   5.251  10.902  10.245  0.2457  0.0097  0.2584
18088PP      PP28192  11.114   4.245  13.255 -0.3408  0.4548  0.0050
18089PP      PP28193  14.240   2.944  10.780 -0.0555 -0.2954 -0.1871
18090PP      PP28194   3.727   2.045  10.768  0.2170 -0.0189  0.2310
18091PP      PP28195  14.980   2.008  10.938 -0.1867  0.1253 -0.1876
18092PP      PP28196   4.145   4.410   3.736 -0.0649  0.0186 -0.1056
18093PP      PP28197  11.177   3.016   0.334 -0.2167  0.0537  0.0169
18094PP      PP28198   8.660  14.742  13.207  0.0657 -0.1229 -0.1538
18095PP      PP28199   5.625  12.967   1.407 -0.1307 -0.1378 -0.0808
18096PP      PP28200  12.528  13.247  11.299  0.4290  0.3499 -0.2892
18097PP      PP28201  13.638  12.767   9.809  0.2707 -0.1112 -0.0944
18098PP      PP28202  11.806  13.412   2.030  0.0253  0.1564  0.0707
18099PP      PP28203   3.530  11.510  13.431 -0.1477  0.5493 -0.2680
18100PP      PP28204  10.372   1.662  10.977 -0.4492 -0.1153  0.1759
18101PP      PP28205   2.039  10.831  11.589 -0.0097  0.2897 -0.0213
18102PP      PP28206  11.566   7.869   9.363 -0.0194  0.0985  0.1438
18103PP      PP28207  11.805   3.552  10.554  0.1477  0.3188 -0.1247
18104PP      PP28208   3.859  15.852  11.912  0.4717  0.4785  0.0086
18105PP      PP28209  15.454   2.514   0.534 -0.0887 -0.0587  0.2917
18106PP      PP28210   1.996   8.967   0.343  0.1564 -0.0943  0.2071
18107PP      PP28211  10.783   9.152   3.131 -0.4797 -0.1515 -0.3195
18108PP      PP28212  11.063   4.272   2.675 -0.0407 -0.0685 -0.0728
18109PP      PP28213  10.983  13.637  11.285 -0.0017 -0.0662 -0.2145
18110PP      PP28214  14.403   4.300   0.415 -0.2241 -0.0201  0.1227
18111PP      PP28215   4.113   5.098   9.078 -0.1878  0.1816  0.0826
18112PP      PP28216   9.639   8.987  12.984 -0.3309  0.0143 -0.0605
18113PP      PP28217   3.249   7.251   8.706  0.1623  0.0860  0.2238
18114PP      PP28218  11.908  15.183  11.366 -0.0081 -0.0283 -0.1474
18115PP      PP28219   7.287   7.090   3.414 -0.1000 -0.1624 -0.0186
18116PP      PP28220   3.093  13.464   4.087 -0.0112  0.0139  0.0428
18117PP      PP28221   2.423   9.188  11.565  0.3362  0.0948  0.0681
18118PP      PP28222  14.499   1.132   9.174  0.2178 -0.1999  0.1278
18119PP      PP28223   8.292   9.353  13.065 -0.1175 -0.2145  0.0266
18120PP      PP28224  14.393   2.832  13.112 -0.0849  0.1510 -0.1192
18121PP      PP28225   1.245  14.267   2.772 -0.4302  0.0471 -0.0108
18122PP      PP28226  12.890  10.680  10.637  0.1081 -0.0617  0.1320
18123PP      PP28227   3.155   0.904   3.208 -0.1049  0.2170  0.1116
18124PP      PP28228   0.372  14.551  13.094  0.0834  0.0629 -0.0397
18125PP      PP28229  15.501   1.455   3.009 -0.0398  0.0412  0.0281
18126PP      PP28230  10.346   7.582   2.284  0.1022 -0.0867  0.1630
18127PP      PP28231   7.270   3.290   2.519  0.1240 -0.0474  0.1164
18128PP      PP28232  12.071   1.671  10.530 -0.1671 -0.0143 -0.0909
18129PP      PP28233   6.933  13.865   1.305 -0.1418 -0.0896 -0.0149
18130PP      PP28234   7.881   3.537   3.821  0.0608 -0.0592  0.1749
18131PP      PP28235  10.846  15.002   4.887  0.1475 -0.2347 -0.1182
18132PP      PP28236  13.829   0.863   3.387  0.0901 -0.0950 -0.0690
18133PP      PP28237   3.771   4.468   0.132  0.0200 -0.1567  0.0078
18134PP      PP28238  13.919  15.108   0.889  0.0325 -0.1038  0.4017
18135PP      PP28239   8.058   1.937   2.635  0.4331  0.2949  0.3363
18136PP      PP28240  11.088  12.705   3.225 -0.1715  0.0983  0.0991
18137PP      PP28241   2.596   7.070   1.823  0.0095  0.1159 -0.2661
18138PP      PP28242   6.068   7.253   9.274 -0.1833  0.2945  0.2714
18139PP      PP28243   5.992   3.717   2.166  0.0212  0.0393  0.1976
18140PP      PP28244  10.027   7.672   1.414  0.0341  0.1312 -0.0524
18141PP      PP28245   8.934  12.448  10.455  0.3338 -0.0287  0.0085
18142PP      PP28246   1.481   0.393   1.645  0.1517 -0.3049 -0.0675
18143PP      PP28247   9.920   7.379  11.636  0.1094  0.0711  0.3488
18144PP      PP28248   8.747   3.365   3.794 -0.1650  0.0264  0.1806
18145PP      PP28249   2.149  12.620   2.581  0.2511  0.0976 -0.2214
18146PP      PP28250   4.404  12.979  10.558 -0.1730 -0.4142  0.2223
18147PP      PP28251  14.691   0.630   9.895 -0.0906  0.0593  0.5957
18148PP      PP28252  12.899   7.470  12.635  0.1128 -0.1032 -0.5138
18149PP      PP28253   6.218   7.314   3.259 -0.0597 -0.1219 -0.3247
18150PP      PP28254   9.342   7.661   8.467 -0.1410  0.0381 -0.1014
18151PP      PP28255   7.488  12.404   2.398 -0.1386  0.0550  0.0215
18152PP      PP28256   2.075  13.823  12.429 -0.1547 -0.2470  0.0535
18153PP      PP28257   3.692   1.354  10.984  0.0778  0.0722  0.0467
18154PP      PP28258   6.397   8.935   4.152 -0.1641 -0.1805  0.0725
18155PP      PP28259   6.344   3.446   1.132  0.0906 -0.0284  0.0926
18156PP      PP28260  10.745  10.542  12.149  0.0229  0.1109 -0.4136
18157PP      PP28261  10.126   4.086  11.913 -0.0911  0.1491 -0.1255
18158PP      PP28262   9.314   9.843   4.283  0.0388  0.0005  0.0523
18159PP      PP28263   1.776   8.646   2.677 -0.0320 -0.2099 -0.0364
18160PP      PP28264   7.604   5.563   1.583 -0.3125 -0.1562 -0.4336
18161PP      PP28265   2.702  14.623   8.877 -0.1782 -0.2007 -0.0975
18162PP      PP28266   6.341  13.602  12.462  0.1147 -0.0901 -0.3440
18163PP      PP28267  14.807  10.342  13.383  0.0008 -0.0423  0.2066
18164PP      PP28268  11.565  14.457   2.485  0.1366 -0.1635 -0.2472
18165PP      PP28269   0.432   1.355   4.044 -0.2230 -0.0779  0.1676
18166PP      PP28270  11.973   2.187   0.493 -0.2634  0.0125 -0.0560
18167PP      PP28271   5.320  15.298  11.284 -0.0876 -0.0411 -0.0736
18168PP      PP28272   3.515   7.209  11.981  0.0967 -0.2558  0.1310
18169PP      PP28273  13.981  14.824   3.468  0.2285  0.2871 -0.1909
18170PP      PP28274   3.914   5.327   2.976 -0.0375  0.3667  0.2986
18171PP      PP28275  14.858   0.421   1.281 -0.1314 -0.0338  0.4012
18172PP      PP28276   5.567   9.532   1.390  0.1955  0.1164  0.1305
18173PP      PP28277   8.675  12.873   2.151  0.1095  0.0835  0.0906
18174PP      PP28278   0.913   0.108  10.037  0.0375  0.4492  0.0454
18175PP      PP28279   6.761  11.187   4.351 -0.0585  0.1948  0.1611
18176PP      PP28280  15.137  10.985  11.511  0.0075  0.0770 -0.1754
18177PP      PP28281   1.279   0.405   4.191  0.0076 -0.1146 -0.1960
18178PP      PP28282   7.099  13.567   3.765 -0.1782 -0.1679  0.0156
18179PP      PP28283   9.700   1.586   3.265 -0.0767  0.3775 -0.0626
18180PP      PP28284  10.126   7.761   3.060  0.3146  0.1131 -0.1024
18181PP      PP28285   9.720  14.810   4.465  0.1887  0.0123 -0.1647
18182PP      PP28286   4.765   3.532   3.531 -0.0287 -0.1827  0.2681
18183PP      PP28287   8.549   0.265   4.077  0.0360  0.0803  0.2534
18184PP      PP28288   5.028  12.777  12.015  0.1306 -0.0087 -0.1378
18185PP      PP28289   1.254   4.336  12.408 -0.1355  0.2653 -0.1621
18186PP      PP28290   6.036  10.757   3.192 -0.1938 -0.0220  0.2152
18187PP      PP28291   0.466  11.263  13.203  0.0902 -0.1069 -0.0570
18188PP      PP28292   5.249   6.200   9.734  0.2135  0.0925  0.2223
18189PP      PP28293  10.423   2.239   3.085 -0.2863  0.1441  0.1304
18190PP      PP28294  11.580   1.707  12.519 -0.1367 -0.1227  0.2895
18191PP      PP28295  15.825  11.989   9.499 -0.0493 -0.1601 -0.1086
18192PP      PP28296   6.266   1.422   2.019  0.3263 -0.2365  0.2086
18193PP      PP28297  15.640   0.464   2.390 -0.0539  0.0596 -0.3820
18194PP      PP28298   7.289   4.946  13.168  0.0021 -0.0626  0.0981
18195PP      PP28299  14.462   0.433  11.723  0.0328  0.3851 -0.1070
18196PP      PP28300   2.408  10.895   9.309  0.0371  0.1032 -0.2281
18197PP      PP28301   8.310   9.225  11.201  0.1758  0.1418  0.0287
18198PP      PP28302   3.289   7.403   9.244 -0.2360  0.1487  0.1812
18199PP      PP28303   9.096  11.381  13.404  0.4495 -0.0599  0.0506
18200PP      PP28304   8.337   4.614   9.055  0.1944  0.0564  0.0786
18201PP      PP28305  14.455   2.052  11.372 -0.2764 -0.1651 -0.1413
18202PP      PP28306   8.381  15.632   3.407 -0.0976  0.0044  0.1104
18203PP      PP28307   3.626  14.497   0.090  0.4905  0.0721 -0.3618
18204PP      PP28308  11.468   9.487   2.844  0.0590  0.0309  0.0491
18205PP      PP28309  14.811  13.666  11.923  0.0990  0.1263 -0.3958
18206PP      PP28310   1.474   8.073   3.444 -0.0507  0.0894  0.3393
18207PP      PP28311   4.230  15.723   1.853  0.1372  0.0311 -0.0577
18208PP      PP28312  10.113  12.373   3.304 -0.1953  0.0599  0.0983
18209PP      PP28313   6.145   7.438  10.094  0.3601 -0.0359 -0.2051
18210PP      PP28314  14.390   8.283   1.659  0.0853  0.0755  0.1623
18211PP      PP28315   4.086  15.167   2.354  0.4326 -0.0687  0.1994
18212PP      PP28316  10.401   0.675  10.733  0.0639  0.1859 -0.0169
18213PP      PP28317  14.324  13.398  11.602 -0.2114 -0.0883 -0.2038
18214PP      PP28318   0.591   0.269   2.768 -0.5540 -0.0370  0.1978
18215PP      PP28319   7.061   8.042   2.308  0.0663 -0.1770  0.0579
18216PP      PP28320  12.252  12.176  10.365  0.2418 -0.2608  0.0543
18217PP      PP28321   9.002   5.174   8.559 -0.1327  0.1703  0.1194
18218PP      PP28322   7.433   9.641   0.694  0.0972 -0.0637  0.0009
18219PP      PP28323  12.233   9.909   8.373 -0.1980 -0.0122 -0.0168
18220PP      PP28324   2.666   2.812   4.732 -0.2733 -0.1595  0.2508
18221PP      PP28325  12.622  11.838   5.245  0.1123  0.6510  0.0166
18222PP      PP28326   9.156  10.295  11.017  0.1374 -0.1337 -0.1670
18223PP      PP28327  10.339   4.216  12.706  0.1912 -0.0128 -0.1405
18224PP      PP28328   4.140   3.586   4.255  0.0158  0.0567 -0.0509
18225PP      PP28329   7.035  12.012   4.375  0.0146 -0.3032  0.0938
18226PP      PP28330   3.905   9.893   0.930  0.1976  0.3130  0.0162
18227PP      PP28331   2.108   5.308  12.552 -0.0192  0.2966  0.2543
18228PP      PP28332  11.742  12.886  10.550  0.0816 -0.0045  0.1381
18229PP      PP28333   3.727   8.439  11.172 -0.0051 -0.0478  0.1306
18230PP      PP28334   4.659  10.942   0.517 -0.1951 -0.1667 -0.2489
18231PP      PP28335  13.986   5.708   8.655 -0.0219  0.1071 -0.0487
18232PP      PP28336   9.323   2.304   1.754  0.0804  0.0994 -0.2948
18233PP      PP28337   5.644   3.482   1.224 -0.3316 -0.0985  0.2213
18234PP      PP28338   6.328   4.788   1.159  0.2580 -0.0065  0.0203
18235PP      PP28339  15.669  11.027  11.467  0.2442 -0.2716  0.3287
18236PP      PP28340   5.504  10.178   1.971  0.2036  0.3570 -0.1426
18237PP      PP28341   8.703   3.789   0.258  0.1092 -0.1703 -0.0249
18238PP      PP28342   5.231   5.765  12.722  0.3876 -0.5759 -0.1580
18239PP      PP28343   7.847  15.496   1.810 -0.1111  0.3064 -0.2841
18240PP      PP28344   5.694   8.039  10.364 -0.1155  0.1041  0.0896
18241PP      PP28345  13.925   6.906   2.040  0.3218  0.1270  0.0864
18242PP      PP28346   7.957   4.957  11.831 -0.0716 -0.2155 -0.0639
18243PP      PP28347   5.974   0.625   9.076 -0.2412  0.1911  0.0895
18244PP      PP28348  10.636   6.874  11.921 -0.4438  0.0695 -0.0927
18245PP      PP28349  10.910   7.216  12.813 -0.0918  0.2793 -0.3317
18246PP      PP28350   8.259  15.737  12.231 -0.1063  0.1656  0.0979
18247PP      PP28351   8.614  10.655   1.861 -0.0654 -0.2614 -0.1573
18248PP      PP28352  10.500  14.827   3.340 -0.1979 -0.0158  0.0301
18249PP      PP28353  10.106   1.481   4.651 -0.1542 -0.0531  0.0574
18250PP      PP28354   6.578   5.390  11.119 -0.0971  0.1260  0.0451
18251PP      PP28355   5.702   7.077  10.559  0.1347  0.1826 -0.1197
18252PP      PP28356   5.512   9.748   2.315  0.0310 -0.1105 -0.0107
18253PP      PP28357   1.005   0.918  10.789 -0.0756 -0.0243 -0.0301
18254PP      PP28358  13.596   4.056  11.803 -0.0688 -0.1473  0.3682
18255PP      PP28359  10.393  12.872   2.591 -0.3575 -0.5283 -0.0080
18256PP      PP28360   7.134  10.477  10.824  0.1587  0.0399 -0.0417
18257PP      PP28361  12.078  11.175  12.580  0.2241  0.4435  0.1855
18258PP      PP28362  11.562   3.268   0.472 -0.3401 -0.1447 -0.0146
18259PP      PP28363  15.788   8.144   8.294  0.0301  0.0048 -0.0905
18260PP      PP28364  12.412   9.862  10.439 -0.1541  0.1314 -0.0581
18261PP      PP28365  14.507   5.351   0.931  0.1137 -0.0383 -0.0081
18262PP      PP28366  14.105   3.949   3.128  0.0983 -0.1279  0.0911
18263PP      PP28367   5.865   2.600   3.966 -0.2298 -0.0477  0.0534
18264PP      PP28368   1.099  14.983  10.465 -0.1972  0.1900 -0.2068
18265PP      PP28369  15.160  14.881   2.773  0.2068 -0.0285 -0.0536
18266PP      PP28370   5.118   6.160  12.990  0.2660 -0.0752 -0.1178
18267PP      PP28371   6.260   4.335  13.009 -0.0287  0.1293 -0.2583
18268PP      PP28372   8.523   1.801  10.881  0.4859  0.2374  0.0750
18269PP      PP28373   8.538   3.000   9.925  0.1250 -0.1228  0.1379
18270PP      PP28374  10.744   2.195  12.460 -0.0182 -0.0896  0.0956
18271PP      PP28375   0.966  14.838   1.821  0.0359 -0.0184 -0.3593
18272PP      PP28376   6.987   3.286  12.152 -0.0173  0.1057 -0.1259
18273PP      PP28377  13.637   4.934   2.846  0.0651  0.2448 -0.1068
18274PP      PP28378  12.343  11.740   3.898 -0.0058  0.1101  0.0615
18275PP      PP28379   5.879  13.692  12.140  0.1143  0.4147  0.0135
18276PP      PP28380  12.037  12.949   2.902  0.1684 -0.0244 -0.0409
18277PP      PP28381   0.331   7.203  13.178 -0.1436 -0.0914 -0.0279
18278PP      PP28382  11.434  11.882   2.186  0.3148 -0.0174  0.1179
18279PP      PP28383  13.208   7.483  13.060  0.1296  0.0277  0.1709
18280PP      PP28384   1.063   1.833  10.466 -0.1381 -0.4680  0.1710
18281PP      PP28385   9.686  12.095  11.444 -0.0881  0.1311 -0.4465
18282PP      PP28386  11.495   0.684  13.362  0.0854 -0.1490 -0.3682
18283PP      PP28387  14.461   1.152   9.688  0.1868 -0.0156  0.2624
18284PP      PP28388   4.282  15.738   2.563 -0.2665  0.0586  0.2607
18285PP      PP28389   0.306  13.238   9.093 -0.0104  0.1594 -0.3184
18286PP      PP28390   4.202  12.363   3.005  0.0065  0.3708 -0.0764
18287PP      PP28391   8.965   2.209   4.831  0.1098  0.0403 -0.2182
18288PP      PP28392   9.625   7.905   9.793  0.1123 -0.3255 -0.1524
18289PP      PP28393   0.891   8.361   9.962  0.0347 -0.0498 -0.2733
18290PP      PP28394  10.551   2.575   9.815 -0.0395 -0.0427  0.4865
18291PP      PP28395  11.095   3.877   0.872  0.1484 -0.0415 -0.1631
18292PP      PP28396  13.084   2.075   3.587 -0.0772 -0.2942  0.0876
18293PP      PP28397   7.745   3.472  12.445 -0.0405  0.0786 -0.0289
18294PP      PP28398   1.863  13.332   1.927  0.0602  0.2357 -0.6407
18295PP      PP28399  13.825   8.356   1.529 -0.0372 -0.3544 -0.2061
18296PP      PP28400   0.406   9.435   1.647  0.1960  0.2962 -0.2498
18297PP      PP28401   1.856   5.087   8.684 -0.0849 -0.3489 -0.3107
18298PP      PP28402   6.855  13.043   9.210 -0.1965 -0.0692  0.1730
18299PP      PP28403   7.867  15.081  12.879  0.0836 -0.0331  0.0539
18300PP      PP28404   7.390   5.255   3.673 -0.2179 -0.0212 -0.0278
18301PP      PP28405  14.731  11.575   1.632 -0.0272  0.1580  0.2593
18302PP      PP28406   4.469  11.270   9.558 -0.0808  0.1779  0.0005
18303PP      PP28407  10.821   6.268  13.068  0.1554 -0.2371  0.2724
18304PP      PP28408   1.813  12.181   4.243  0.0252  0.0425  0.1067
18305PP      PP28409   3.608   6.240   1.626  0.1544  0.0958 -0.0018
18306PP      PP28410   5.381   8.728  10.867  0.0163 -0.1367  0.0222
18307PP      PP28411   8.191   4.770   1.678 -0.1941 -0.0035 -0.0152
18308PP      PP28412   9.103   2.586   0.754  0.0675 -0.0131 -0.0379
18309PP      PP28413   4.010  11.894  12.049  0.1059  0.0516  0.1161
18310PP      PP28414  13.008   5.336   9.702  0.3567  0.1983  0.1032
18311PP      PP28415   1.691  13.182   3.880 -0.0260 -0.0366 -0.3704
18312PP      PP28416   0.443   6.939   0.530  0.0589  0.0618  0.1260
18313PP      PP28417  15.883   6.154   0.146  0.0386 -0.0510  0.2205
18314PP      PP28418   6.980  14.058  10.069 -0.0276 -0.3265  0.1263
18315PP      PP28419   5.637   7.705   3.810 -0.2066  0.1608  0.4501
18316PP      PP28420  13.358  14.859   4.552 -0.3845  0.1143  0.4641
18317PP      PP28421  12.419   3.521   1.149 -0.1124  0.0193 -0.2337
18318PP      PP28422   2.556   9.277  10.282 -0.0790 -0.0917  0.0022
18319PP      PP28423  14.197  12.209   0.350 -0.2253  0.0495  0.3014
18320PP      PP28424   3.308   3.588  11.058  0.2887 -0.2493 -0.1111
18321PP      PP28425  12.722   8.399   1.221  0.2408  0.1815  0.0642
18322PP      PP28426  15.710  10.541   0.109 -0.0768  0.0621  0.3235
18323PP      PP28427   2.246   2.750   1.367  0.1802  0.3716  0.0908
18324PP      PP28428   0.293  12.459  10.074  0.0789 -0.2110 -0.0689
18325PP      PP28429   5.553   9.766   0.576 -0.2943 -0.1135 -0.0566
18326PP      PP28430  13.080   3.351   4.127 -0.0379  0.0572 -0.3471
18327PP      PP28431   4.689  15.259  10.455  0.1765  0.0515  0.0086
18328PP      PP28432   5.587   4.580   0.608 -0.1076  0.3006  0.0773
18329PP      PP28433   3.335   7.656  11.609 -0.1198  0.0965  0.0919
18330PP      PP28434  15.288   0.875   0.504 -0.1353  0.0996  0.1167
18331PP      PP28435  12.365  13.323   4.771 -0.0657  0.0177 -0.0553
18332PP      PP28436  14.950  12.825  10.606  0.0314 -0.1243 -0.0259
18333PP      PP28437   5.456   3.757   0.885 -0.0989 -0.0186 -0.0896
18334PP      PP28438  14.980   2.319  12.612  0.0875 -0.1030 -0.0103
18335PP      PP28439   1.896  14.389  10.840 -0.2475  0.1663 -0.2518
18336PP      PP28440   7.231   8.731   2.522 -0.3154 -0.4047  0.1819
18337PP      PP28441   9.539   8.503  10.739 -0.0531  0.1442 -0.0582
18338PP      PP28442   9.668  12.278   0.040 -0.0650  0.3288  0.5128
18339PP      PP28443  13.112   8.471   2.126 -0.4213 -0.0548 -0.0800
18340PP      PP28444  14.799   2.258   4.052 -0.0438 -0.1023  0.1258
18341PP      PP28445   5.834   2.342  10.875 -0.2036  0.1143  0.2543
18342PP      PP28446  11.403   1.983   9.947 -0.2747 -0.1126  0.2577
18343PP      PP28447   1.366   8.343  10.034  0.3799  0.3843 -0.1870
18344PP      PP28448  10.984   8.270  12.107 -0.5186 -0.0777 -0.0641
18345PP      PP28449   3.317   8.137   0.353  0.1094 -0.1518 -0.2655
18346PP      PP28450   0.600   6.507  11.921 -0.0370 -0.1058  0.0605
18347PP      PP28451   2.334   9.485  12.427 -0.1272 -0.5342  0.1271
18348PP      PP28452  11.583   7.222  12.920  0.1328 -0.0122  0.0314
18349PP      PP28453  13.988   0.339  11.856  0.1873 -0.0097 -0.4870
18350PP      PP28454  11.079   9.057   1.758  0.0273  0.0676  0.2698
18351PP      PP28455  13.889   5.694  11.302 -0.0537 -0.2023 -0.1777
18352PP      PP28456  12.879   6.991   0.051 -0.1005  0.0973 -0.2354
18353PP      PP28457   6.652  13.132   4.370  0.1739  0.2887 -0.0206
18354PP      PP28458  14.482   5.022  12.251  0.0339  0.0492 -0.0473
18355PP      PP28459   5.128  15.441  13.098  0.1066 -0.0668  0.0540
18356PP      PP28460  10.209   4.440  10.527 -0.1013  0.0723 -0.2095
18357PP      PP28461  14.919  12.153  12.281 -0.2017 -0.2336 -0.1781
18358PP      PP28462  11.676   0.492   1.234 -0.2152  0.1618  0.1660
18359PP      PP28463   4.438   5.617   3.894 -0.2135 -0.0754 -0.0980
18360PP      PP28464   7.784   6.661   9.451 -0.0872 -0.3099  0.1104
18361PP      PP28465  13.552  13.724   3.249  0.2988 -0.1555  0.1263
18362PP      PP28466   6.964  10.149   3.236  0.0545  0.1381 -0.2753
18363PP      PP28467   2.211   0.125  10.355 -0.1797 -0.0582  0.1150
18364PP      PP28468   7.333   1.518   3.757  0.1879  0.0371  0.2583
18365PP      PP28469   2.564  11.713   3.936  0.1422 -0.1847 -0.0910
18366PP      PP28470  15.528  13.042   1.349 -0.1409 -0.1611  0.1419
18367PP      PP28471   4.613   1.523  11.545  0.0242  0.0731  0.0760
18368PP      PP28472   0.865   8.646   3.186 -0.1449 -0.0467  0.2497
18369PP      PP28473   5.810  12.118   3.363  0.1292  0.1497 -0.3372
18370PP      PP28474   4.443   7.821  11.802  0.0892  0.2640  0.1273
18371PP      PP28475  12.436   9.026   8.610  0.1025 -0.2442  0.1808
18372PP      PP28476  11.749   8.870   9.280  0.0595  0.0716  0.0917
18373PP      PP28477  10.355   8.321   0.177 -0.1843 -0.1045 -0.3132
18374PP      PP28478  12.526   5.091   2.247  0.1806  0.0244 -0.1084
18375PP      PP28479   4.542   1.793   2.368 -0.0235  0.1592  0.0653
18376PP      PP28480   0.828   6.884   9.722  0.2861  0.0575  0.0070
18377PP      PP28481  12.182   9.120   1.307  0.2062  0.1063  0.0550
18378PP      PP28482   5.722   9.161   2.291  0.0137  0.1819 -0.0224
18379PP      PP28483   2.105   6.478   3.720  0.0338 -0.3705  0.1752
18380PP      PP28484  12.723   4.865   9.660  0.1530 -0.2468  0.0504
18381PP      PP28485  14.508   1.959  12.747 -0.2658  0.1534 -0.1477
18382PP      PP28486   9.557  12.928   0.011 -0.2380 -0.1798 -0.2905
18383PP      PP28487   3.709  10.593  13.023  0.2756 -0.2255  0.0868
18384PP      PP28488   8.963   8.799   8.856 -0.0285 -0.0821 -0.3956
18385PP      PP28489   6.919   2.049  13.073  0.0289  0.2139 -0.4222
18386PP      PP28490   7.301   8.189   0.344 -0.0707  0.2708  0.0067
18387PP      PP28491   5.554   5.070   8.991 -0.3077  0.0315  0.0293
18388PP      PP28492   0.792  13.124   2.396  0.0312  0.0733  0.2164
18389PP      PP28493   1.337   2.571   3.079  0.3575 -0.1682 -0.1725
18390PP      PP28494  13.123   4.564   1.856 -0.0378 -0.0366 -0.0312
18391PP      PP28495   6.245  14.097   9.669  0.0096 -0.0152 -0.0556
18392PP      PP28496   0.087   0.501   0.143  0.0323  0.1174  0.2743
18393PP      PP28497   8.392  12.807   9.417  0.0828  0.1414 -0.1208
18394PP      PP28498  12.979  10.676  12.893 -0.0739  0.1550 -0.0043
18395PP      PP28499  11.442   8.866   2.625  0.1741 -0.1401  0.1354
18396PP      PP28500   1.268  12.148   0.434 -0.0593  0.1787 -0.2784
18397PP      PP28501  11.191   2.375   1.828 -0.0775 -0.1498 -0.3392
18398PP      PP28502  12.768   9.129   2.903 -0.0421  0.0558  0.3391
18399PP      PP28503  11.306   3.881   2.453  0.0355  0.2083  0.0354
18400PP      PP28504   4.216   1.544   0.302 -0.0119  0.0533 -0.0441
18401PP      PP28505  10.151   6.763  11.161 -0.1456  0.0382 -0.1748
18402PP      PP28506   5.339  15.281   3.761  0.0335  0.1431  0.1956
18403PP      PP28507  11.126  10.787  10.831 -0.1771 -0.3228  0.0061
18404PP      PP28508   5.845   6.134  11.444 -0.0241 -0.2020 -0.0750
18405PP      PP28509   8.505   4.856  11.536  0.1821  0.0155 -0.1134
18406PP      PP28510  13.469  15.086  11.790 -0.0100  0.0861  0.0605
18407PP      PP28511   2.139  10.644   3.854  0.1392  0.1271  0.0058
18408PP      PP28512   2.901  14.152   4.077  0.0023  0.0755 -0.2584
18409PP      PP28513  12.906   7.457   1.180 -0.1312  0.3035  0.1568
18410PP      PP28514   4.005   1.627  10.656 -0.1109  0.0320 -0.0890
18411PP      PP28515   8.748  13.853  10.979  0.0642 -0.0294 -0.0786
18412PP      PP28516   7.699  14.115   2.821 -0.0336 -0.1007 -0.1495
18413PP      PP28517   3.403  10.567   3.391  0.2643  0.3059 -0.0622
18414PP      PP28518   9.858  10.481  10.049  0.2862  0.0540  0.1009
18415PP      PP28519   0.684   9.365  11.078 -0.4260 -0.1095 -0.1403
18416PP      PP28520   0.958   7.128   2.065  0.0239 -0.3495 -0.1258
18417PP      PP28521   8.283   8.711   4.131 -0.0564  0.3151  0.1360
18418PP      PP28522  13.548  11.377  10.980 -0.0156  0.0258 -0.0692
18419PP      PP28523   4.447   4.571   3.376 -0.1939  0.0330 -0.0736
18420PP      PP28524  14.419   6.142   2.319  0.3324  0.0723 -0.2146
18421PP      PP28525   6.913   1.680   2.691 -0.1634  0.0882 -0.2040
18422PP      PP28526   7.460   3.589  13.395 -0.0113 -0.4384 -0.0868
18423PP      PP28527   7.544  13.753  12.639 -0.0583  0.0968 -0.1506
18424PP      PP28528   2.733  12.628   0.110  0.0409  0.0390 -0.0030
18425PP      PP28529   5.470   0.415   9.213  0.0348 -0.1275  0.0488
18426PP      PP28530   6.745  13.366   1.316  0.0050 -0.0497 -0.2719
18427PP      PP28531  13.621  12.615  13.436 -0.3300  0.0320  0.0812
18428PP      PP28532   5.058   9.122  10.742 -0.1078  0.2623 -0.3906
18429PP      PP28533   4.207  14.510   2.927 -0.0047  0.0093  0.0945
18430PP      PP28534  14.221  14.602   2.845  0.0759  0.1030 -0.1385
18431PP      PP28535   3.568  12.736  12.580  0.0895  0.2981  0.0420
18432PP      PP28536   4.458  13.680  11.194 -0.1258 -0.1349  0.3928
18433PP      PP28537  11.477   7.287   7.684  0.1224 -0.3454  0.3309
18434PP      PP28538  14.847   3.669  12.909 -0.1468  0.0445 -0.0222
18435PP      PP28539   4.562   8.819   1.766 -0.5281  0.2683 -0.3817
18436PP      PP28540  12.187   0.892   4.141 -0.2431  0.3009  0.0881
18437PP      PP28541  13.006   7.035  12.875 -0.1507 -0.1769 -0.0459
18438PP      PP28542  10.115  12.294   0.578 -0.2295  0.0216  0.3536
18439PP      PP28543  13.386   4.110  12.795 -0.2866  0.4706 -0.0423
18440PP      PP28544  13.191   4.985  11.013 -0.1927  0.0701 -0.1974
18441PP      PP28545   0.518  12.798   1.330 -0.1844 -0.1479 -0.4618
18442PP      PP28546   7.675  11.322  13.017  0.0268  0.2955 -0.0315
18443PP      PP28547   7.891  12.783  10.804  0.0830  0.1497  0.4494
18444PP      PP28548   0.533  14.154   2.986  0.2985 -0.1737 -0.0812
18445PP      PP28549   9.999  10.209  13.226  0.1441 -0.2257 -0.1591
18446PP      PP28550   2.464   8.788   3.883  0.0133  0.1315  0.0617
18447PP      PP28551   5.705  14.968   2.338  0.0484 -0.3424  0.0594
18448PP      PP28552   2.286   6.719  10.860  0.3489  0.1547 -0.4091
18449PP      PP28553   3.377   0.041   1.283  0.3627  0.0463 -0.4687
18450PP      PP28554   0.621  14.701   8.589 -0.0883 -0.0348  0.0189
18451PP      PP28555  15.547  13.560   1.280  0.1665  0.0059  0.2081
18452PP      PP28556  15.001  15.744  11.032 -0.1183 -0.0216 -0.0023
18453PP      PP28557   9.651  15.664   9.385 -0.1894  0.1676 -0.0632
18454PP      PP28558  10.310  14.030  12.752 -0.1586 -0.0511 -0.0596
18455PP      PP28559  15.140   5.897  12.012  0.2515 -0.0401 -0.1558
18456PP      PP28560   8.966  10.908   4.021  0.0292  0.1967 -0.3260
18457PP      PP28561   7.878   8.636   2.447 -0.0881  0.1135 -0.1727
18458PP      PP28562   1.014   4.200   9.987 -0.1100 -0.1188  0.0470
18459PP      PP28563   6.199  10.293   1.132  0.1814 -0.3141 -0.0533
18460PP      PP28564   6.679  10.601  11.201  0.1222 -0.0555  0.1627
18461PP      PP28565   9.916  14.516   2.651 -0.1083  0.0261 -0.1838
18462PP      PP28566  15.763  14.354   4.466 -0.0511 -0.0323  0.0872
18463PP      PP28567   3.489   3.229   9.982 -0.0650  0.5418  0.0014
18464PP      PP28568   0.350   3.852  11.619  0.2375  0.0552  0.1571
18465PP      PP28569  15.045  12.295   0.163 -0.1536  0.2286  0.0315
18466PP      PP28570   6.430  12.210  10.334 -0.4840  0.1408  0.1440
18467PP      PP28571  15.323   1.766  10.318  0.5820  0.0945 -0.0076
18468PP      PP28572   2.512   4.637  13.102 -0.0201  0.3957 -0.1922
18469PP      PP28573   7.964  13.430   4.361 -0.0456  0.0116 -0.2140
18470PP      PP28574   8.010  13.705   1.138 -0.2942  0.0635 -0.0299
18471PP      PP28575  15.329  11.057   0.028 -0.0610  0.0547 -0.1498
18472PP      PP28576   9.557   5.876   3.690  0.1464 -0.5088  0.0648
18473PP      PP28577   6.428  13.795  13.158 -0.2079 -0.0642 -0.4762
18474PP      PP28578  10.570   2.829  11.229 -0.4257  0.1069 -0.0217
18475PP      PP28579   5.572   7.770  11.128  0.0066 -0.5561 -0.2376
18476PP      PP28580   9.248   9.427   0.684 -0.1168 -0.3721 -0.2354
18477PP      PP28581   2.098  11.871  13.330  0.0687  0.0497  0.0926
18478PP      PP28582  10.371  14.733   1.019 -0.0273  0.1581  0.1981
18479PP      PP28583   9.013   0.514   3.957 -0.1802  0.0919 -0.2703
18480PP      PP28584  15.091   2.650   4.385 -0.0503 -0.1649  0.0522
18481PP      PP28585   7.920   3.771   9.885  0.2399  0.1115  0.0284
18482PP      PP28586   7.226  15.344  10.650 -0.3601 -0.2186 -0.2105
18483PP      PP28587  13.933   6.780  11.006  0.2817  0.0422  0.2060
18484PP      PP28588   2.305  13.814   0.014 -0.1202 -0.1252  0.2321
18485PP      PP28589   4.964   2.236   2.362 -0.1457  0.0407  0.0956
18486PP      PP28590  12.024   8.652  10.500 -0.1642 -0.0725  0.2888
18487PP      PP28591   6.273   2.901  11.602 -0.0857  0.3343  0.0547
18488PP      PP28592   6.006  10.534  12.970  0.4340 -0.1094  0.0180
18489PP      PP28593  13.357  13.841   4.249  0.3441  0.1978  0.1270
18490PP      PP28594   8.896   2.668   9.737  0.0188 -0.0905  0.0854
18491PP      PP28595  13.753   8.327  12.853 -0.1236  0.0060 -0.2705
18492PP      PP28596   5.744   4.357  10.824  0.1384  0.0356 -0.4000
18493PP      PP28597  10.931  15.053  13.339 -0.0306 -0.2753  0.3640
18494PP      PP28598   4.206   6.087  10.289 -0.0241  0.0151 -0.3022
18495PP      PP28599   6.812  10.713   9.718  0.0713 -0.3652 -0.0056
18496PP      PP28600  11.623   7.364   0.907  0.0896 -0.0744  0.1430
18497PP      PP28601  11.832   1.309   9.146  0.1196  0.1214 -0.1426
18498PP      PP28602  12.668   6.363  10.360  0.1178  0.0848  0.4832
18499PP      PP28603  13.037  12.538   0.969 -0.1432  0.1867  0.2315
18500PP      PP28604   9.917   8.939  11.633  0.1580  0.1620  0.0618
18501PP      PP28605   6.006  15.354   4.282 -0.2178  0.4249  0.1396
18502PP      PP28606   4.051  13.767   4.155 -0.1423 -0.2439 -0.1062
18503PP      PP28607   3.794  10.038   1.452 -0.1026 -0.2715 -0.2784
18504PP      PP28608   8.197   5.657   2.464  0.0130  0.0525  0.0607
18505PP      PP28609  12.950   6.235   1.210 -0.2596  0.1056  0.0934
18506PP      PP28610  10.164   3.648  13.374  0.0327 -0.0109 -0.3041
18507PP      PP28611   6.718  12.786  10.488 -0.2723  0.1008  0.0616
18508PP      PP28612  11.680   7.916   2.026  0.1585  0.1447 -0.1886
18509PP      PP28613  10.462   9.170   2.458 -0.0859 -0.1041 -0.2143
18510PP      PP28614   6.306  14.449  13.212  0.2194  0.0147  0.0119
18511PP      PP28615   9.227  14.234   0.383  0.1136 -0.1024  0.0531
18512PP      PP28616   9.137  15.357   1.756 -0.0378  0.0263 -0.0418
18513PP      PP28617   8.198   4.462   2.133  0.1300 -0.2007  0.1487
18514PP      PP28618   6.607   6.536   9.752 -0.2264 -0.1382  0.0341
18515PP      PP28619   8.930   3.052   9.156  0.0100 -0.3215 -0.3687
18516PP      PP28620   9.868   5.491  12.825  0.0219 -0.3612 -0.2302
18517PP      PP28621  13.245   0.954  10.421 -0.0247  0.0809  0.2670
18518PP      PP28622   8.862   1.465   4.009  0.3567 -0.0633 -0.3688
18519PP      PP28623  12.704  10.860   8.524  0.0094 -0.0949 -0.1846
18520PP      PP28624   3.841   6.995   0.324 -0.2469 -0.1440  0.0568
18521PP      PP28625   6.518   3.662   9.691 -0.1814  0.0577  0.0868
18522PP      PP28626   6.310  10.449  11.565 -0.0321 -0.2365  0.3461
18523PP      PP28627  10.629  13.535  10.890 -0.0951  0.1654 -0.3638
18524PP      PP28628  14.643   3.217   0.167  0.0425 -0.2824 -0.0156
18525PP      PP28629   5.375   0.180  10.661 -0.0858  0.1426 -0.1316
18526PP      PP28630   0.951   7.271   3.806 -0.0100 -0.0378  0.0560
18527PP      PP28631  15.483  13.676  12.551 -0.1340  0.0460  0.1178
18528PP      PP28632   5.460   9.659   0.055 -0.1469 -0.1822  0.0597
18529PP      PP28633   4.134   6.259  13.418  0.0256 -0.3610  0.1601
18530PP      PP28634   1.501   9.483  11.000  0.0331  0.0586  0.1319
18531PP      PP28635   9.157   4.157   3.746  0.2976 -0.0289  0.0266
18532PP      PP28636   5.102   1.027  11.327  0.1178 -0.0815  0.0024
18533PP      PP28637   8.249  10.299  10.511 -0.0580 -0.1453  0.0595
18534PP      PP28638   1.779   0.796  12.777 -0.0236 -0.1027  0.2106
18535PP      PP28639   9.032   3.975  10.162  0.0384 -0.0071  0.2354
18536PP      PP28640   4.016   2.685   4.151  0.2896  0.0282  0.0944
18537PP      PP28641   4.249  13.782   0.337  0.0489 -0.0450 -0.3077
18538PP      PP28642  11.011  13.768   0.889 -0.2823  0.3229 -0.1182
18539PP      PP28643   2.623   9.525   2.384 -0.3084 -0.0935  0.0680
18540PP      PP28644   0.859  13.349   0.586  0.1291 -0.0252 -0.2174
18541PP      PP28645   2.379  14.556  11.993  0.1175 -0.1760 -0.1857
18542PP      PP28646   4.100   0.659   0.824  0.2328 -0.2484 -0.0927
18543PP      PP28647   7.162  14.851   2.098  0.2852  0.0333  0.3174
18544PP      PP28648  15.638   6.171   2.328 -0.1395  0.0198  0.0716
18545PP      PP28649   5.963   9.279   1.630  0.1052 -0.1060 -0.1189
18546PP      PP28650  15.322   8.047   1.401  0.0747  0.1678 -0.1421
18547PP      PP28651   3.393  11.681   0.381 -0.2528 -0.0032 -0.4265
18548PP      PP28652   0.750   3.053  11.388  0.0777  0.0379 -0.1694
18549PP      PP28653   3.199  10.342  12.962  0.0730 -0.0901 -0.0424
18550PP      PP28654   2.250   1.733  13.333  0.3657 -0.0683  0.3007
18551PP      PP28655  14.922  15.843   1.585  0.0695 -0.1323 -0.1070
18552PP      PP28656   9.657  11.843  10.158 -0.0762  0.2182 -0.3310
18553PP      PP28657   3.199   7.124   3.243 -0.2545  0.1139  0.1538
18554PP      PP28658   2.745  13.631   8.654  0.3145 -0.1457  0.0800
18555PP      PP28659   8.453  15.463  11.867  0.2856 -0.1463  0.0144
18556PP      PP28660  12.569  11.503  10.060 -0.0480  0.0601 -0.0905
18557PP      PP28661   7.897   8.097   2.114  0.2096  0.0164 -0.1315
18558PP      PP28662  15.814   0.615  12.112  0.1166 -0.0175 -0.0291
18559PP      PP28663   7.068  10.127  13.439 -0.2218  0.0219 -0.1463
18560PP      PP28664  11.857  14.924  12.493  0.1529  0.0101  0.2218
18561PP      PP28665   2.862   6.350   3.117 -0.1225 -0.1825  0.4719
18562PP      PP28666   7.391   3.684   3.297  0.4043 -0.2766 -0.1472
18563PP      PP28667   1.496  13.619   9.857 -0.2553 -0.0275 -0.0267
18564PP      PP28668   7.037  10.258  11.286 -0.0091 -0.3328  0.0695
18565PP      PP28669  10.032   9.504  11.819  0.1899  0.4148  0.0481
18566PP      PP28670   2.929   3.286   9.596  0.2281 -0.0753 -0.2164
18567PP      PP28671   1.758  12.356   2.722 -0.1156  0.2896  0.2458
18568PP      PP28672   4.247   9.051  11.271 -0.0242 -0.1228  0.1267
18569PP      PP28673  15.719   7.353   3.670  0.1541 -0.0228 -0.3251
18570PP      PP28674   9.336  12.571   3.687  0.0369  0.1711 -0.0160
18571PP      PP28675  11.921   3.217  10.895 -0.2775  0.2423  0.1737
18572PP      PP28676   0.745   2.506  11.675  0.1177 -0.0824 -0.0555
18573PP      PP28677   7.309  14.415   4.929 -0.0983  0.2730  0.1473
18574PP      PP28678   2.318   6.489  13.430  0.1465 -0.2838  0.2917
18575PP      PP28679   3.122   0.392   2.825 -0.1722 -0.1309 -0.0695
18576PP      PP28680   6.613  12.867  11.979 -0.0866 -0.1764 -0.0753
18577PP      PP28681  13.131  14.349   4.401  0.0407  0.2019  0.0878
18578PP      PP28682   9.854  14.145   9.263  0.0298 -0.2237  0.2155
18579PP      PP28683   9.638  15.361   0.922  0.2095 -0.0383  0.4154
18580PP      PP28684   5.470   3.265   4.125 -0.2194 -0.0059  0.2708
18581PP      PP28685   7.175   3.730   2.808  0.3784 -0.0078  0.0945
18582PP      PP28686   7.553   7.776  11.586 -0.1144  0.0514  0.1241
18583PP      PP28687   7.687   2.708  13.062  0.2969  0.1335 -0.4221
18584PP      PP28688  10.414   4.117  10.879 -0.0979  0.2108 -0.3052
18585PP      PP28689   7.293   7.017   8.500  0.0790 -0.1732 -0.1352
18586PP      PP28690  12.412   8.571  12.753 -0.3193 -0.0268  0.1671
18587PP      PP28691   6.576  13.859  10.321  0.0177 -0.1416  0.2940
18588PP      PP28692  14.788   2.065   0.992  0.0596  0.1006 -0.2044
18589PP      PP28693   0.266  10.389   0.169 -0.0812  0.0905 -0.1734
18590PP      PP28694   3.170   9.058  10.009 -0.0587  0.1085  0.1847
18591PP      PP28695  14.677  14.582   1.893 -0.1496  0.2973  0.0717
18592PP      PP28696   6.095  10.236   3.427  0.0488  0.0702  0.1684
18593PP      PP28697   5.208   7.538  12.330 -0.3300  0.2308 -0.0679
18594PP      PP28698  13.454   8.268  13.502 -0.1592 -0.1518  0.1568
18595PP      PP28699   1.388  11.541   2.886 -0.5110 -0.2589  0.1479
18596PP      PP28700   3.196   6.885  12.027  0.0809 -0.1968  0.2791
18597PP      PP28701   4.535  10.527  10.381 -0.0552  0.1573 -0.1661
18598PP      PP28702   8.698  13.831   9.039  0.1125  0.0424 -0.1484
18599PP      PP28703   1.850  11.890   9.038  0.0976 -0.3341  0.2544
18600PP      PP28704   4.819   1.250  12.368  0.0341  0.0203 -0.2803
18601PP      PP28705   6.631   0.612  11.138 -0.2162 -0.1257 -0.2209
18602PP      PP28706  14.143   4.884   0.052 -0.1294  0.3396 -0.0983
18603PP      PP28707   8.074   4.107  10.368  0.0263 -0.0180  0.3004
18604PP      PP28708   3.169   7.287   0.969  0.1768 -0.0653  0.3013
18605PP      PP28709   9.148   4.489  13.334  0.1565  0.0289  0.1801
18606PP      PP28710   2.333   1.003  13.319 -0.0308  0.1594  0.0789
18607PP      PP28711  11.666   9.765  12.855 -0.0178 -0.0039 -0.1264
18608PP      PP28712   1.535  12.776  10.284 -0.2236 -0.1866  0.1676
18609PP      PP28713   6.112  14.874   0.969  0.0415  0.1885  0.0606
18610PP      PP28714   7.164  11.288  13.083  0.0298  0.0069  0.0981
18611PP      PP28715  13.954   0.702  11.505 -0.2640 -0.0542 -0.1995
18612PP      PP28716   2.026   5.903   1.351  0.2566 -0.0674 -0.0124
18613PP      PP28717  12.895   0.665   2.677 -0.0064 -0.4658 -0.1110
18614PP      PP28718  10.864   2.219  11.667  0.0951  0.0800  0.1628
18615PP      PP28719   2.497  12.407   9.365 -0.0760 -0.0345  0.2196
18616PP      PP28720   4.889   7.884  13.121 -0.2579 -0.1658 -0.4293
18617PP      PP28721   9.823  11.546  12.079 -0.1285 -0.0388  0.0050
18618PP      PP28722  10.548  11.809  13.529  0.0693  0.2739  0.0744
18619PP      PP28723  13.645  12.247   9.779  0.4576 -0.0115 -0.0794
18620PP      PP28724  14.108   4.259   8.080 -0.1316 -0.0530  0.2087
18621PP      PP28725   7.181  14.239  13.513  0.0439  0.0206 -0.0030
18622PP      PP28726   4.982   8.942   3.559 -0.0647  0.3137  0.0815
18623PP      PP28727   8.438   8.658   0.691 -0.1625 -0.2312 -0.1838
18624PP      PP28728   7.881  15.661  11.436 -0.1118 -0.0691 -0.1056
18625PP      PP28729   7.189   4.429   0.021 -0.0224 -0.0855 -0.1807
18626PP      PP28730   8.902  12.303  12.942 -0.0779  0.1984  0.3651
18627PP      PP28731  14.833  14.757  10.785  0.0581 -0.0338 -0.1731
18628PP      PP28732  10.403  13.103  11.852 -0.1419  0.1161 -0.1511
18629PP      PP28733   1.091   8.068  12.412  0.0879  0.0023  0.1316
18630PP      PP28734  14.745  15.698  10.396 -0.1129  0.0211  0.1081
18631PP      PP28735   1.529  12.239  11.602  0.0251  0.1280 -0.3769
18632PP      PP28736   7.577   9.481  12.299 -0.2878  0.2981  0.0981
18633PP      PP28737   0.470   6.654  10.728 -0.0585  0.2189  0.0709
18634PP      PP28738   5.566  12.929   3.906  0.1936 -0.0805 -0.0061
18635PP      PP28739   9.564  13.559  12.417 -0.2306  0.0962 -0.0498
18636PP      PP28740   7.369  11.225  10.893  0.1355  0.3629 -0.2851
18637PP      PP28741  10.966   9.625  10.439 -0.3712  0.1035  0.1391
18638PP      PP28742   0.598   4.227   2.632 -0.1275  0.2178  0.1272
18639PP      PP28743   6.560   4.018   8.916  0.1454 -0.3321 -0.3678
18640PP      PP28744   9.024   9.378   9.767 -0.1266  0.0146 -0.4149
18641PP      PP28745   4.861   7.923  11.613  0.0318  0.1704  0.2103
18642PP      PP28746   8.774   8.698   3.800 -0.0568  0.0108 -0.0515
18643PP      PP28747  13.736   1.565   0.350  0.0754 -0.0360 -0.1632
18644PP      PP28748  13.563  14.332   3.518  0.2562 -0.1515  0.3149
18645PP      PP28749  10.394   7.365   8.842  0.0198 -0.0277 -0.2557
18646PP      PP28750   1.921  15.481   2.932 -0.0892  0.0901 -0.0465
18647PP      PP28751  12.739   3.736  10.863 -0.1801 -0.0061 -0.3608
18648PP      PP28752   7.660  10.389  12.824  0.1735 -0.1164  0.0422
18649PP      PP28753   4.587  11.753   3.202 -0.2076 -0.1501 -0.0908
18650PP      PP28754   4.825  12.890   4.281  0.1648  0.0197  0.2998
18651PP      PP28755   4.157  10.525   4.039  0.1888  0.0770 -0.0258
18652PP      PP28756  11.410  13.604  11.642 -0.0590  0.1488 -0.0636
18653PP      PP28757  13.588   5.858  10.855  0.2592  0.0405 -0.2243
18654PP      PP28758   4.555   5.758  12.174  0.0357  0.1881  0.1972
18655PP      PP28759   3.992  11.717  11.439 -0.2992  0.0514  0.0481
18656PP      PP28760   6.305   7.254  10.780  0.1299  0.2445 -0.0774
18657PP      PP28761  13.728   0.891  10.253 -0.2204  0.0584 -0.0234
18658PP      PP28762  13.475   0.130  10.713  0.0902  0.1058 -0.0776
18659PP      PP28763  14.520  15.341   9.876 -0.0331  0.1295 -0.0133
18660PP      PP28764   9.397   5.296   1.877 -0.0150 -0.0480 -0.0850
18661PP      PP28765  15.436   2.622   9.819 -0.2535  0.1273 -0.0012
18662PP      PP28766  14.586   5.604   2.309 -0.3222  0.0108  0.0784
18663PP      PP28767   9.657   8.419  12.899  0.1720  0.1965 -0.0360
18664PP      PP28768   9.835   8.642   8.588  0.0939  0.1904 -0.1949
18665PP      PP28769  10.703  10.565   2.433 -0.3102 -0.1820  0.0660
18666PP      PP28770  12.432  13.952  10.145  0.1742 -0.0447 -0.0759
18667PP      PP28771   6.983  13.205  11.725  0.0455  0.2337  0.0419
18668PP      PP28772   2.876  14.962   1.572 -0.1146 -0.1727 -0.1561
18669PP      PP28773   7.811  12.432   5.089 -0.1781 -0.1718  0.2279
18670PP      PP28774   4.442  13.342   2.780 -0.1705 -0.0255  0.1656
18671PP      PP28775   9.987   7.033   8.768 -0.1300 -0.1655 -0.0075
18672PP      PP28776  15.231   0.156   4.346  0.1391  0.2736 -0.0283
18673PP      PP28777  14.670   6.709   1.054 -0.0117 -0.0969  0.1351
18674PP      PP28778   7.440  12.966  11.608  0.0399  0.0747  0.1343
18675PP      PP28779   2.011  15.548  12.239  0.0995 -0.0944 -0.1598
18676PP      PP28780  15.487   9.030   3.740  0.0520  0.0835 -0.1109
18677PP      PP28781   7.376  11.147  12.103 -0.3546 -0.2312 -0.1366
18678PP      PP28782  12.468   3.310   1.698  0.0980  0.2163 -0.0714
18679PP      PP28783   1.306   2.105   3.222 -0.2136  0.2073 -0.2183
18680PP      PP28784   2.021   2.197  11.681  0.2903 -0.1173 -0.0446
18681PP      PP28785   8.386   8.626   3.249  0.0618 -0.0547 -0.2158
18682PP      PP28786  14.217  11.655   0.223  0.4086 -0.1878  0.0019
18683PP      PP28787  14.239   7.620  10.423  0.0539 -0.1232 -0.2471
18684PP      PP28788   3.217  14.017  11.718  0.2723  0.0386  0.2309
18685PP      PP28789  11.561  12.934   3.070 -0.2487  0.2206  0.2225
18686PP      PP28790   4.111   6.299   0.878  0.1160  0.7434 -0.3280
18687PP      PP28791   8.580   2.196   4.532  0.0296 -0.0063 -0.0446
18688PP      PP28792  12.692   5.772   1.165 -0.0279 -0.2613  0.0993
18689PP      PP28793  10.855  12.934   1.829  0.2036 -0.1486  0.0611
18690PP      PP28794   8.326  10.904   2.301 -0.1576 -0.1611  0.0231
18691PP      PP28795   7.361  10.529   9.124  0.0948 -0.0489 -0.1734
18692PP      PP28796  14.040   6.559   3.365 -0.5148  0.2357  0.1929
18693PP      PP28797   4.286   2.300   4.623  0.2770 -0.1878  0.1774
18694PP      PP28798  12.919  15.819  10.002  0.0698  0.0844  0.2847
18695PP      PP28799   4.657  10.068   3.340 -0.0316 -0.0318 -0.0094
18696PP      PP28800  11.621   3.968   8.475  0.0824  0.0789 -0.0786
18697PP      PP28801   6.446   6.144  13.357  0.1583  0.2465 -0.0332
18698PP      PP28802  15.658  10.572   9.701  0.0163 -0.1455 -0.1191
18699PP      PP28803  10.217  12.872  12.277  0.3986 -0.0172  0.0496
18700PP      PP28804   8.924   1.564   1.561 -0.0604  0.1847  0.0805
18701PP      PP28805   7.309   0.411   2.453  0.0525  0.0023 -0.0013
18702PP      PP28806   5.734   0.814   1.689 -0.0210  0.3342 -0.1855
18703PP      PP28807   8.319   2.844  11.806 -0.1326 -0.2569 -0.3006
18704PP      PP28808   1.667   2.226   3.639 -0.0344  0.2171 -0.1107
18705PP      PP28809   5.984   3.368   4.093  0.5245 -0.0466 -0.1528
18706PP      PP28810   8.791  11.307   4.244 -0.0621  0.0521  0.1038
18707PP      PP28811   7.043   9.894   0.362  0.0680  0.3337  0.2358
18708PP      PP28812   4.817   1.835   9.271  0.1757 -0.4501 -0.1309
18709PP      PP28813   7.354  10.195  11.680  0.1754  0.1589  0.0163
18710PP      PP28814   7.828   7.674  13.469 -0.1567  0.2374  0.1967
18711PP      PP28815  11.488  15.809   0.194 -0.2549 -0.1116  0.1039
18712PP      PP28816  12.230  11.183   2.484 -0.1224  0.0851  0.0857
18713PP      PP28817   3.678  15.365   1.749  0.1888 -0.0759 -0.0023
18714PP      PP28818  11.334   2.329   2.745  0.0537 -0.1532  0.0834
18715PP      PP28819   0.274  12.832   3.010  0.0889  0.0966 -0.4375
18716PP      PP28820   5.852   0.261  10.459  0.2143 -0.1539  0.0423
18717PP      PP28821  13.082   0.485  11.220 -0.2169  0.0418  0.6955
18718PP      PP28822  13.953   6.843  11.633  0.0553 -0.3055  0.0593
18719PP      PP28823  15.404   7.198  11.177 -0.3224  0.3098  0.0995
18720PP      PP28824  12.192   4.040   9.789  0.1267  0.0943  0.0413
18721PP      PP28825   5.994  10.772   1.806  0.0325 -0.0342  0.2871
18722PP      PP28826  11.378  15.449   9.775  0.1301 -0.0805 -0.1956
18723PP      PP28827  15.251  15.450   2.664 -0.0913 -0.1058  0.1876
18724PP      PP28828   0.813  14.161   3.947  0.0726  0.2333  0.0805
18725PP      PP28829   2.098   5.744  12.945 -0.0589 -0.3597 -0.4211
18726PP      PP28830   6.959   7.890  10.298 -0.4069 -0.0240 -0.0068
18727PP      PP28831  11.309   3.311   1.272 -0.1828  0.1773  0.0758
18728PP      PP28832  14.195  11.032   4.138 -0.0961  0.3569 -0.0662
18729PP      PP28833   4.577   8.976   4.050 -0.0543 -0.0603 -0.0748
18730PP      PP28834   7.306   5.901  12.641 -0.0205 -0.0479  0.1455
18731PP      PP28835   1.292   5.327  12.243  0.1291  0.0080 -0.0163
18732PP      PP28836   1.834  13.751   2.204  0.0860 -0.0761  0.0459
18733PP      PP28837  14.741   5.848  12.378 -0.0769  0.0743  0.0458
18734PP      PP28838   0.296  12.328  11.176  0.0578  0.0184  0.1702
18735PP      PP28839   2.213   1.865   0.363  0.1213 -0.0493 -0.3059
18736PP      PP28840  14.247   6.422   1.958  0.3932  0.1756 -0.1300
18737PP      PP28841   9.424  11.876   9.706  0.1508  0.0494  0.0358
18738PP      PP28842   5.082   3.753   0.027  0.0676 -0.0750  0.3098
18739PP      PP28843   2.239   6.437  10.007  0.0954  0.2840  0.0773
18740PP      PP28844   8.784  14.396   3.534 -0.0368  0.2055 -0.1014
18741PP      PP28845   6.992  14.805  11.001 -0.2367  0.2109 -0.3302
18742PP      PP28846  15.111  15.876  13.245  0.1135 -0.0044 -0.2474
18743PP      PP28847   8.747   0.426  10.402  0.1044  0.0664 -0.0252
18744PP      PP28848   6.135   2.058  12.946 -0.3092  0.0684 -0.1069
18745PP      PP28849   4.983  12.219  13.153 -0.1780 -0.1089  0.1310
18746PP      PP28850   5.815   6.739  13.521  0.0101  0.0032 -0.0773
18747PP      PP28851   3.041  13.660   1.555  0.0657  0.1845  0.2365
18748PP      PP28852   2.592  13.983   1.000  0.1624  0.0221 -0.0903
18749PP      PP28853  10.150   4.437   8.456 -0.1161 -0.0299 -0.2899
18750PP      PP28854   2.261  10.291  12.974 -0.1577  0.1487  0.0449
18751PP      PP28855   5.727   1.163  11.385  0.0584 -0.1404 -0.0909
18752PP      PP28856   5.773  12.448  12.994  0.0146  0.0707  0.0956
18753PP      PP28857   4.696   3.892  10.599  0.1187  0.1487  0.2782
18754PP      PP28858  15.718  12.065   2.772  0.4721  0.4084  0.1660
18755PP      PP28859  12.891   2.462   9.592 -0.0123  0.0735 -0.1276
18756PP      PP28860   0.304   3.009   8.734 -0.3649  0.0044 -0.0149
18757PP      PP28861  12.635  15.024   0.404  0.3496 -0.0854  0.2270
18758PP      PP28862   8.691  11.054  11.995 -0.3718 -0.1740  0.0271
18759PP      PP28863  10.157   9.003  12.502 -0.0544 -0.0764  0.2091
18760PP      PP28864   0.622  10.108  12.393  0.3181 -0.1399  0.0887
18761PP      PP28865   1.266   9.759   2.346 -0.1891  0.3583  0.1246
18762PP      PP28866  12.537  15.399  13.115 -0.1069 -0.0043  0.2945
18763PP      PP28867   2.673   9.928   0.242  0.1181  0.1186  0.1634
18764PP      PP28868   4.675   0.474   9.181 -0.4841 -0.0576  0.0561
18765PP      PP28869  13.185  11.118   9.739  0.0657  0.1016  0.0936
18766PP      PP28870  10.769   0.761   2.923 -0.0361  0.1421 -0.1192
18767PP      PP28871  10.139  10.521   1.613  0.1487  0.3389 -0.0672
18768PP      PP28872   2.991   6.085  10.824 -0.1013  0.2471  0.1765
18769PP      PP28873   8.106   7.297   8.751 -0.0488 -0.0588 -0.2101
18770PP      PP28874   7.242  14.169   0.954 -0.1456  0.1173 -0.0928
18771PP      PP28875   6.751   7.701   8.042  0.6378 -0.2380  0.2598
18772PP      PP28876   1.265  12.123   9.300 -0.3421 -0.2995  0.1839
18773PP      PP28877   0.763   2.424   1.431 -0.0569 -0.3133 -0.2603
18774PP      PP28878   1.699  11.213   0.902 -0.5049 -0.2118  0.1012
18775PP      PP28879   9.693  10.690  11.847  0.1525  0.5841 -0.0819
18776PP      PP28880   4.808  13.523  11.635  0.1322  0.0856 -0.0643
18777PP      PP28881   3.450   9.617   9.230 -0.1392  0.0831 -0.0063
18778PP      PP28882  11.207  12.617   0.131 -0.3109  0.0322  0.1510
18779PP      PP28883  11.901   7.506  10.548  0.0547 -0.1264  0.0435
18780PP      PP28884   8.985   0.342   1.957  0.3715 -0.1722 -0.1850
18781PP      PP28885   2.914   4.823   1.623  0.4883 -0.0073 -0.2768
18782PP      PP28886   9.220   4.554   3.263 -0.1324 -0.1075  0.0754
18783PP      PP28887  14.576  11.410   0.970  0.0779 -0.0577 -0.3130
18784PP      PP28888  14.810   5.279   0.516 -0.1064  0.0477  0.0842
18785PP      PP28889   3.226  10.167   1.630 -0.0411  0.0428 -0.2429
18786PP      PP28890  10.210   1.049   3.150 -0.1962 -0.0379  0.0591
18787PP      PP28891  13.128  13.753  12.042  0.1794 -0.0861  0.1335
18788PP      PP28892   8.528  10.847  10.466 -0.1859  0.0529  0.0170
18789PP      PP28893   1.983  13.418  12.757  0.0328  0.1404 -0.0778
18790PP      PP28894  14.804   5.680   8.232  0.2620 -0.0823  0.2783
18791PP      PP28895   4.361  14.512  11.588 -0.0687  0.1210  0.2796
18792PP      PP28896   1.617   6.992   9.848  0.3646 -0.0502  0.1494
18793PP      PP28897   2.830   3.782   2.087  0.2110  0.2529  0.1016
18794PP      PP28898   2.537   2.922   9.298  0.0900  0.0062 -0.1120
18795PP      PP28899   1.754   2.919   1.310  0.1273  0.0896 -0.0484
18796PP      PP28900   8.794   7.130  13.322  0.2973  0.1473 -0.3502
18797PP      PP28901  13.151   8.615   3.537 -0.0269 -0.0941  0.2536
18798PP      PP28902   9.502  11.803  12.328 -0.2006  0.1517  0.2362
18799PP      PP28903   5.182   5.579  11.004  0.0454  0.2137 -0.1978
18800PP      PP28904   9.915   5.695   8.615 -0.1812 -0.0592 -0.0567
18801PP      PP28905  15.563  14.688   2.856  0.1028 -0.0882 -0.1821
18802PP      PP28906  10.850  12.412   1.915 -0.0007  0.1299  0.0507
18803PP      PP28907  13.514   4.672   3.573 -0.0668 -0.2170 -0.0369
18804PP      PP28908   0.217   2.742  12.649  0.1808 -0.5284 -0.1242
18805PP      PP28909   9.797  15.837   2.682  0.1652 -0.1919  0.0768
18806PP      PP28910   3.742   7.167   3.080  0.2098 -0.0078  0.4814
18807PP      PP28911  13.758  12.802   1.763 -0.0186 -0.2069  0.0165
18808PP      PP28912   4.214   3.157   5.067  0.3215 -0.0476 -0.0210
18809PP      PP28913   5.753   6.199   9.959  0.2532 -0.1459 -0.2701
18810PP      PP28914  12.597   4.158   2.460  0.0439 -0.0376 -0.2633
18811PP      PP28915   8.959   2.090   1.426 -0.0514  0.2675 -0.0666
18812PP      PP28916  12.014  14.169   9.392 -0.1398 -0.0265  0.2119
18813PP      PP28917  13.231   6.400   0.839 -0.4750  0.1386  0.1553
18814PP      PP28918   9.973   0.437   2.439  0.2255  0.0284 -0.1350
18815PP      PP28919  15.502  10.915  10.722 -0.0149  0.0152 -0.0435
18816PP      PP28920   0.793   1.226  10.004  0.1228 -0.2104 -0.0632
18817PP      PP28921   4.070   3.022  12.753 -0.0053 -0.1889 -0.0202
18818PP      PP28922   6.331   9.947   2.459 -0.1012 -0.1725  0.3692
18819PP      PP28923  10.237   7.890  13.432 -0.2814 -0.2444  0.0080
18820PP      PP28924   3.603   7.421   2.103 -0.1835  0.1657  0.0066
18821PP      PP28925   7.666   8.616   0.341  0.0435  0.4564 -0.2625
18822PP      PP28926  14.053   0.515  10.651  0.1242 -0.1463 -0.0909
18823PP      PP28927   3.613   4.335  12.166 -0.1749 -0.1379 -0.0343
18824PP      PP28928  15.572   8.829   9.351  0.2554 -0.0749  0.0550
18825PP      PP28929   2.355   0.430  12.599 -0.1517  0.0919  0.0957
18826PP      PP28930  11.209   4.738   8.725  0.1675  0.0696 -0.0380
18827PP      PP28931   0.760  10.235   4.219  0.0641 -0.1230 -0.2826
18828PP      PP28932   4.252  14.250   2.450  0.1005  0.2174  0.3317
18829PP      PP28933  13.910   5.475  10.768  0.2797  0.0116 -0.0233
18830PP      PP28934  10.697  13.553  12.683  0.1810 -0.0089  0.0160
18831PP      PP28935   8.924  11.820  13.171  0.0691 -0.1157 -0.5547
18832PP      PP28936  11.778   2.628   2.291 -0.1438 -0.0107 -0.5170
18833PP      PP28937  14.251  10.165   1.216  0.0636 -0.0267  0.0710
18834PP      PP28938   3.957   7.479   9.409 -0.1402 -0.1734 -0.0015
18835PP      PP28939  14.294   5.462  11.574  0.1032 -0.3170  0.2223
18836PP      PP28940  12.200  12.562   2.537 -0.1280  0.0546  0.0338
18837PP      PP28941  13.343   1.503  11.713 -0.1844 -0.0410 -0.2637
18838PP      PP28942   2.825   1.319   3.147 -0.0655 -0.0465 -0.1342
18839PP      PP28943  13.618  13.429   4.669  0.0517  0.1326 -0.2202
18840PP      PP28944  15.494  15.606  11.790  0.1903  0.0577 -0.1617
18841PP      PP28945  15.451   7.877   0.822 -0.2636 -0.0524 -0.2477
18842PP      PP28946   5.437  10.269   0.303  0.0989  0.2417 -0.1384
18843PP      PP28947  13.934  11.191  11.658  0.0668  0.3953 -0.0892
18844PP      PP28948  11.091   7.042   3.877 -0.2604 -0.0756  0.3330
18845PP      PP28949   9.728   1.461   3.966 -0.0355  0.2464 -0.2326
18846PP      PP28950  10.634  11.785   9.932 -0.3359 -0.1155  0.1266
18847PP      PP28951  15.800   9.153   0.149 -0.0918  0.0213  0.2378
18848PP      PP28952   5.435   2.801  11.554 -0.2096  0.1918  0.1669
18849PP      PP28953   6.221   8.000  12.896  0.2153  0.3915 -0.1457
18850PP      PP28954   0.916   3.446   3.327 -0.0876 -0.0711  0.1498
18851PP      PP28955   9.050  12.592   0.856 -0.0522  0.0880  0.1356
18852PP      PP28956  11.895   7.004   9.361 -0.0792  0.0612  0.0703
18853PP      PP28957  10.125   5.039   9.673  0.0648  0.0638  0.1741
18854PP      PP28958   8.442  13.960   8.585 -0.0452 -0.2341 -0.3510
18855PP      PP28959  12.468  12.619   2.066 -0.0473 -0.3176  0.2115
18856PP      PP28960  13.168   4.079   1.296 -0.1023 -0.1622 -0.1364
18857PP      PP28961  11.738   8.316   1.621 -0.1420  0.3424  0.1812
18858PP      PP28962   9.495  15.699  12.104  0.1216 -0.1511  0.6426
18859PP      PP28963   7.621   2.333   1.204  0.2313 -0.1395  0.0855
18860PP      PP28964  12.873   5.097   0.288  0.1588 -0.0703 -0.0825
18861PP      PP28965   4.855   6.660   0.230  0.1984 -0.2202  0.2058
18862PP      PP28966   5.754   1.349   1.808 -0.0143 -0.0007 -0.1768
18863PP      PP28967   1.912  11.863   3.292  0.0271 -0.0353  0.0645
18864PP      PP28968   1.601   9.012  11.017  0.1373 -0.0423 -0.2350
18865PP      PP28969  12.561  12.308   3.223 -0.0929  0.3837  0.2939
18866PP      PP28970   5.885   2.659  11.887 -0.1607 -0.0801  0.0010
18867PP      PP28971  14.975   7.823   3.247  0.2506  0.2814  0.3320
18868PP      PP28972   6.543  11.154   9.970 -0.1630  0.2214 -0.1167
18869PP      PP28973   8.066  10.127   1.673 -0.2190  0.2039 -0.1414
18870PP      PP28974  15.367  10.252  10.061 -0.0399 -0.2277 -0.0641
18871PP      PP28975  14.900   4.305   1.081  0.0386  0.1538  0.1568
18872PP      PP28976   9.853   1.594  11.506  0.0286  0.0310 -0.1838
18873PP      PP28977   0.360  15.796   1.304  0.0571 -0.0299  0.1281
18874PP      PP28978   1.668   0.050   4.245 -0.0769 -0.0323  0.1452
18875PP      PP28979   6.002  12.385   2.568  0.0750 -0.0812 -0.0983
18876PP      PP28980  11.765  13.121  10.065  0.0657  0.0098  0.1324
18877PP      PP28981   7.814   3.869   0.175 -0.3386  0.3255 -0.0094
18878PP      PP28982  10.385  15.489  10.313  0.1448 -0.3955  0.0858
18879PP      PP28983   8.960  13.993  10.429 -0.0788  0.2212  0.0388
18880PP      PP28984   2.689   1.619   2.805 -0.0897 -0.1613  0.1579
18881PP      PP28985  12.950   8.726  10.804 -0.1766 -0.0461 -0.3265
18882PP      PP28986   1.259  12.381   2.713  0.0021 -0.0836  0.4343
18883PP      PP28987   9.184   0.654   0.280  0.0901 -0.1428 -0.0128
18884PP      PP28988   9.093   1.646  11.750  0.4289 -0.1799  0.0260
18885PP      PP28989  11.241   9.348   4.203  0.1670 -0.0739 -0.0123
18886PP      PP28990  12.866   1.523  12.380  0.0869  0.1916 -0.2103
18887PP      PP28991   1.173   5.288  12.780  0.1100  0.2538  0.0044
18888PP      PP28992   2.500  15.850   2.284 -0.0710 -0.2255  0.0418
18889PP      PP28993   9.268   0.830   2.820  0.3207  0.1343  0.0622
18890PP      PP28994  10.234   8.532  10.801  0.3214 -0.2016  0.0852
18891PP      PP28995   8.684  15.115   4.707  0.0937  0.0673 -0.0965
18892PP      PP28996   7.603  11.594   1.088 -0.4387  0.1399  0.1907
18893PP      PP28997  15.044   7.340   9.285  0.0775 -0.0982  0.0519
18894PP      PP28998  11.433  12.781   3.582  0.1859 -0.0760  0.1140
18895PP      PP28999  11.072  10.925   2.063 -0.1426 -0.2943 -0.0744
18896PP      PP29000  13.337  14.131  10.185  0.5019  0.2404  0.1926
18897PP      PP29001   6.234   4.733   2.926  0.1639 -0.0195 -0.1325
18898PP      PP29002   9.140   2.884   3.540 -0.2122  0.1832  0.1707
18899PP      PP29003  11.656  14.770  10.574  0.1109 -0.0998  0.1198
18900PP      PP29004  14.186  14.622  13.258  0.0873 -0.0190 -0.2232
18901PP      PP29005  10.158   8.340   1.276 -0.1702  0.0647  0.0628
18902PP      PP29006  11.548   1.137  11.015 -0.0454 -0.1854  0.1025
18903PP      PP29007  12.921   5.437  11.162 -0.3036 -0.0628  0.4866
18904PP      PP29008  11.812   6.486  11.536 -0.0807 -0.0550 -0.0227
18905PP      PP29009  12.345  14.697  11.623 -0.2997  0.4869 -0.0032
18906PP      PP29010   3.260  10.012  13.440 -0.0201  0.0659 -0.0447
18907PP      PP29011   9.965  10.838  13.216  0.0292  0.1904 -0.2045
18908PP      PP29012   2.187  10.684   0.338 -0.0403 -0.2751  0.0857
18909PP      PP29013  10.243  10.995   3.477  0.0643 -0.1863  0.2309
18910PP      PP29014   2.028   4.557   0.382 -0.2835  0.2016  0.2316
18911PP      PP29015   5.573  13.335   0.630  0.1260  0.2382  0.0032
18912PP      PP29016   3.428   9.184   8.929 -0.1978  0.0363 -0.2766
18913PP      PP29017   9.570  15.351   2.743 -0.2795 -0.2136 -0.1632
18914PP      PP29018   1.837   3.620   1.417  0.0874  0.2542  0.1030
18915PP      PP29019   7.115  14.406   2.366 -0.1556 -0.1995  0.0345
18916PP      PP29020   5.806   5.078  11.527 -0.2129  0.0965  0.1239
18917PP      PP29021   3.526   7.046  13.492 -0.0772  0.1055  0.1007
18918PP      PP29022  15.222   6.802   9.483  0.0059 -0.2435  0.0003
18919PP      PP29023   4.314   7.447  10.240  0.4492  0.2485  0.0264
18920PP      PP29024  10.029  13.250   8.830 -0.2018 -0.1121  0.0775
18921PP      PP29025   6.519  15.628   4.345 -0.2150  0.1025  0.1063
18922PP      PP29026   7.629  15.332   3.850  0.1333  0.1680 -0.2109
18923PP      PP29027   7.857   9.147   4.030  0.0350  0.2961  0.0073
18924PP      PP29028  12.406   0.685  10.147 -0.0785  0.1078  0.2418
18925PP      PP29029  12.807  13.359  12.675 -0.1570 -0.1414  0.1634
18926PP      PP29030   9.399   1.485   2.806  0.1335  0.4124  0.1319
18927PP      PP29031   5.022  12.674   0.324  0.0076 -0.3281  0.1432
18928PP      PP29032   3.751  15.885  10.672 -0.1071 -0.1231  0.1673
18929PP      PP29033  10.122   9.517  12.532 -0.4499 -0.1167 -0.2355
18930PP      PP29034  13.891   7.950  12.620  0.0015  0.2673  0.3125
18931PP      PP29035   5.900   1.374  10.786 -0.2076  0.1363  0.0184
18932PP      PP29036   2.182  15.858   3.133 -0.1111 -0.0133 -0.1890
18933PP      PP29037   6.999   1.026  13.103 -0.1713 -0.0090 -0.0198
18934PP      PP29038   5.497   3.977   9.027  0.0993  0.0421 -0.0862
18935PP      PP29039   9.526   5.379   3.457  0.0927  0.2410 -0.2645
18936PP      PP29040  12.879  13.630   3.013 -0.3917 -0.0177  0.1799
18937PP      PP29041  12.715   0.917  10.481 -0.1897 -0.0534 -0.2696
18938PP      PP29042  13.570   0.963  12.783 -0.1037 -0.1688 -0.2517
18939PP      PP29043   0.977  11.327   1.158 -0.3186  0.0877  0.1294
18940PP      PP29044  11.741  13.798   9.670  0.0250 -0.3225  0.0293
18941PP      PP29045  15.282   6.009  13.008 -0.1917 -0.2449  0.0327
18942PP      PP29046   1.576  12.617   2.298 -0.0713 -0.1202  0.0004
18943PP      PP29047  15.333   3.256  10.548  0.1486 -0.1522  0.0643
18944PP      PP29048   8.907   7.436   0.880 -0.2842 -0.0483 -0.2751
18945PP      PP29049   4.771   1.282   2.598  0.1802  0.2113 -0.2938
18946PP      PP29050   7.710   0.902  10.998  0.1208 -0.1440  0.3993
18947PP      PP29051   8.180  12.984   4.228  0.0181  0.1201  0.0205
18948PP      PP29052   6.166   3.462   9.407  0.1914  0.1740  0.0824
18949PP      PP29053   8.212   7.346   3.671 -0.1162 -0.2638  0.0313
18950PP      PP29054   5.787  10.009   9.502 -0.0165 -0.0119  0.2207
18951PP      PP29055   4.425   5.323  10.448  0.4431  0.2339 -0.2569
18952PP      PP29056   0.843  14.933   3.746  0.0590  0.0134  0.0057
18953PP      PP29057   7.176  12.918   1.275 -0.0462 -0.0792  0.1829
18954PP      PP29058  10.612   4.398   2.618  0.1679  0.1276  0.2293
18955PP      PP29059   2.417   8.684   0.128  0.1221 -0.0453 -0.1669
18956PP      PP29060   8.790  11.780   9.784 -0.1363 -0.0795 -0.2163
18957PP      PP29061   5.631  10.678   2.129 -0.1886  0.2494 -0.1103
18958PP      PP29062   1.626   1.020   2.082 -0.5214  0.1291  0.2858
18959PP      PP29063   8.657   0.934  11.138  0.1240  0.1395  0.0689
18960PP      PP29064   9.533   2.179   4.190  0.2127 -0.1444 -0.0293
18961PP      PP29065  15.361  14.873  10.295 -0.1329  0.1911 -0.2445
18962PP      PP29066   6.735  12.083  11.978  0.0424  0.2367 -0.0655
18963PP      PP29067   7.058   6.110  11.491 -0.2352  0.0409  0.0455
18964PP      PP29068   2.533   4.079   4.547 -0.0445  0.2360  0.3214
18965PP      PP29069  12.150  12.098  12.428  0.1257  0.2771 -0.0416
18966PP      PP29070   5.440  12.258   0.878  0.0794  0.0949  0.2210
18967PP      PP29071  14.542   6.357  10.265 -0.0835 -0.1393  0.0513
18968PP      PP29072   3.865   0.614   0.352  0.0804  0.1437 -0.3418
18969PP      PP29073   2.782  14.584  12.377  0.2280 -0.0898 -0.0431
18970PP      PP29074  14.743   9.237   8.879 -0.2376 -0.1350  0.0899
18971PP      PP29075   2.364   8.481  12.265 -0.1959  0.1131  0.0218
18972PP      PP29076   4.439   6.220  12.083 -0.0382  0.0564  0.1703
18973PP      PP29077  12.208  12.102   2.812  0.3371  0.0286  0.0095
18974PP      PP29078  12.159  13.435   3.748  0.1438 -0.0089 -0.0442
18975PP      PP29079   5.764   0.379   3.882 -0.3401 -0.0508  0.2822
18976PP      PP29080  11.098   2.868   1.462  0.0304  0.1163  0.2093
18977PP      PP29081   0.400   3.140   4.743  0.2548 -0.4026 -0.1078
18978PP      PP29082  15.448   1.159   8.813  0.0680  0.1660  0.0007
18979PP      PP29083  11.372   2.762   3.357 -0.1770 -0.1261 -0.1672
18980PP      PP29084   8.714   9.104   3.185  0.0480 -0.1246 -0.0835
18981PP      PP29085  10.690  11.920   1.565 -0.2335 -0.0579 -0.3119
18982PP      PP29086   1.643  15.422  10.037  0.5271  0.1486 -0.0322
18983PP      PP29087   9.860   2.822   1.217  0.0537 -0.0998 -0.0058
18984PP      PP29088   0.844   3.066   9.391  0.0263  0.0389 -0.0268
18985PP      PP29089   0.762   2.836   3.785  0.3653  0.1621  0.2262
18986PP      PP29090   6.179  12.338   3.089 -0.3079  0.2607  0.2107
18987PP      PP29091  10.845  14.805  11.098  0.0904 -0.2762  0.0968
18988PP      PP29092   0.874  11.379   1.703  0.1106 -0.1360  0.0811
18989PP      PP29093   9.354   8.805   1.433 -0.0965  0.0959  0.0074
18990PP      PP29094   1.649   5.803   0.966 -0.0386 -0.1606 -0.3851
18991PP      PP29095  12.539   2.295   2.853 -0.0669  0.1462  0.0027
18992PP      PP29096   3.251   4.862   2.008 -0.3902  0.3068 -0.0675
18993PP      PP29097   4.287   5.105   2.052 -0.1352  0.1329 -0.1539
18994PP      PP29098  14.759   2.999   3.009  0.0374 -0.0067 -0.2305
18995PP      PP29099   8.406   9.855  12.138 -0.3234  0.0409  0.2254
18996PP      PP29100   8.804  12.519  11.966 -0.1055  0.0072 -0.0863
18997PP      PP29101  12.697   4.754   3.145  0.1055  0.1540  0.3142
18998PP      PP29102  13.560   8.068  11.734  0.0096 -0.1602  0.0303
18999PP      PP29103  13.894  11.309   0.135 -0.1557  0.0215 -0.1919
19000PP      PP29104   3.594  13.025   2.694  0.2770 -0.0075  0.1111
19001PP      PP29105  13.739  11.833   2.616 -0.1777  0.1088  0.0317
19002PP      PP29106   6.510   2.374   9.021  0.0673 -0.2494  0.3217
19003PP      PP29107  15.610   0.916   0.044 -0.1111 -0.0026  0.1843
19004PP      PP29108  10.592   9.447  11.125  0.1302  0.0802  0.0836
19005PP      PP29109  15.247   1.809   1.045  0.0025 -0.2054 -0.4399
19006PP      PP29110   9.525   0.471   4.805 -0.3808  0.1229 -0.2616
19007PP      PP29111   0.940   2.586  11.149  0.0454 -0.0173  0.0586
19008PP      PP29112   7.022   2.325  13.516 -0.2332 -0.1950 -0.1595
19009PP      PP29113   4.769   3.240   3.116  0.2236  0.0379  0.1436
19010PP      PP29114   5.783  12.546   1.202  0.1821  0.0254 -0.0253
19011PP      PP29115   8.083   7.717   9.098 -0.2680 -0.5770  0.0624
19012PP      PP29116  10.383   4.857  13.123 -0.3565  0.0776 -0.0549
19013PP      PP29117  12.672   3.570  11.316 -0.1001 -0.0004  0.3145
19014PP      PP29118   6.672   4.054   4.263  0.0076  0.2646 -0.0263
19015PP      PP29119   0.451   3.847   1.627  0.0967 -0.0488  0.0936
19016PP      PP29120   5.931  10.537   0.737 -0.2644 -0.4160 -0.0361
19017PP      PP29121   7.790   5.456   2.099 -0.0119 -0.0377  0.0874
19018PP      PP29122  14.799   2.888   4.048 -0.0098 -0.4816  0.1138
19019PP      PP29123  15.004  12.778  11.777  0.1345  0.1900  0.3201
19020PP      PP29124   7.917   0.144  13.478 -0.0174  0.1300 -0.1460
19021PP      PP29125  15.644   8.777   8.834  0.2322 -0.0868  0.1991
19022PP      PP29126   3.148   3.603   3.057  0.0522  0.0043  0.1682
19023PP      PP29127   3.174  12.933  12.125 -0.1749  0.2408 -0.2185
19024PP      PP29128   2.671  15.327  11.538 -0.3204  0.2641 -0.1462
19025PP      PP29129  13.197   2.812  11.240 -0.1887  0.1655  0.0111
19026PP      PP29130   9.438  11.416   9.438 -0.2987 -0.2644 -0.4458
19027PP      PP29131   7.379  13.724   2.116  0.3566  0.1363 -0.1113
19028PP      PP29132   0.749  13.445  11.675  0.0170 -0.0390 -0.0408
19029PP      PP29133  14.192  14.257   8.902 -0.1750  0.1710 -0.1255
19030PP      PP29134  13.980  12.900  10.278 -0.1204 -0.1161  0.0704
19031PP      PP29135   0.152   6.436  12.190 -0.0367  0.0035 -0.0737
19032PP      PP29136   3.194   4.443   0.195 -0.6038  0.0667 -0.1178
19033PP      PP29137   3.773  15.667   0.930 -0.1947 -0.2726 -0.1266
19034PP      PP29138  11.317  14.289   3.625 -0.1087  0.0347 -0.4100
19035PP      PP29139   3.958   6.312  11.026  0.1201 -0.1953 -0.0507
19036PP      PP29140   3.624   4.290   1.411 -0.2470  0.1581  0.1790
19037PP      PP29141   9.487   5.936  10.466 -0.0764 -0.0284 -0.1590
19038PP      PP29142  10.092  13.695   2.642  0.0190  0.2198 -0.1466
19039PP      PP29143  15.491  14.241   3.680  0.1013 -0.3897 -0.4685
19040PP      PP29144  13.243  11.276  13.122  0.1718 -0.2022 -0.0161
19041PP      PP29145   3.345   3.488   3.504  0.0923 -0.3521  0.4189
19042PP      PP29146  12.384   1.024  10.827 -0.4401  0.0312  0.3747
19043PP      PP29147   5.937   3.763   3.133 -0.1897  0.1617  0.0300
19044PP      PP29148  13.034   4.474   3.489  0.2168 -0.0022  0.0466
19045PP      PP29149   4.686  12.100   3.605 -0.3958 -0.1948 -0.0835
19046PP      PP29150  12.151   6.741   8.381 -0.0774 -0.0789  0.0787
19047PP      PP29151   8.522   5.575  10.609 -0.0233 -0.0233 -0.2608
19048PP      PP29152  15.465  11.720   0.690  0.0964 -0.2045 -0.0742
19049PP      PP29153   5.919   3.237   3.192 -0.2987 -0.1680 -0.2112
19050PP      PP29154  14.435  12.121   1.568  0.0870  0.4664  0.1498
19051PP      PP29155   8.572   4.503  13.298 -0.2736 -0.0412  0.1304
19052PP      PP29156   9.210  13.703  11.546  0.1472  0.3832 -0.2023
19053PP      PP29157   9.861  11.641   1.379  0.0127 -0.0375 -0.0591
19054PP      PP29158  13.725  14.678   0.785  0.1248  0.0670 -0.0702
19055PP      PP29159  15.733   1.822   1.944  0.0136  0.1874  0.0651
19056PP      PP29160   1.697  11.231  11.406  0.2241 -0.0786  0.3832
19057PP      PP29161   5.183   0.894  11.900 -0.3005 -0.3574 -0.1022
19058PP      PP29162  14.499  15.851   3.283  0.0092  0.2002  0.0317
19059PP      PP29163   9.906   5.788   9.156  0.2557 -0.3236 -0.0785
19060PP      PP29164  12.859  14.541  12.591 -0.0370  0.0962  0.1067
19061PP      PP29165   3.119   1.562   0.399  0.0447  0.1933 -0.0642
19062PP      PP29166   7.069   0.767   2.735  0.1464 -0.2247 -0.0979
19063PP      PP29167  13.756   5.478   2.882 -0.3321 -0.0180  0.0499
19064PP      PP29168   3.737   8.354  12.439  0.1800  0.0213 -0.2615
19065PP      PP29169  10.035   8.139  12.926  0.0818 -0.0804  0.0339
19066PP      PP29170   6.916   0.334   0.254  0.0451  0.1825  0.1574
19067PP      PP29171  11.351  13.885  12.488 -0.2019 -0.0237  0.0824
19068PP      PP29172   6.731   4.937  11.880 -0.0593  0.1363 -0.1323
19069PP      PP29173   5.729  10.536  13.502 -0.0850 -0.2161  0.2975
19070PP      PP29174  14.387   3.843  13.004 -0.0629  0.1035  0.1740
19071PP      PP29175  15.002   6.859   1.820 -0.2111 -0.3272  0.0987
19072PP      PP29176  13.634   8.774  12.607  0.0077  0.4036 -0.0818
19073PP      PP29177  12.404   6.855   3.309  0.0310 -0.1677  0.3317
19074PP      PP29178   4.055   8.627   4.478  0.4046 -0.0198  0.0110
19075PP      PP29179   0.014   5.273  13.365  0.0761 -0.2624 -0.0046
19076PP      PP29180  14.223  12.817   0.521 -0.1242  0.0813 -0.0510
19077PP      PP29181   7.755  15.044  13.476 -0.2855 -0.1721 -0.0711
19078PP      PP29182   2.825   6.904   3.731 -0.0255 -0.2397 -0.0850
19079PP      PP29183  15.040  11.500   0.857  0.1376 -0.0924 -0.2676
19080PP      PP29184   0.865   4.034   1.277  0.0167 -0.2156  0.0555
19081PP      PP29185  13.161   7.546   3.529 -0.1792 -0.0308 -0.1182
19082PP      PP29186  10.273  10.489   3.249  0.0591  0.2088 -0.1793
19083PP      PP29187   7.282   9.734  12.015 -0.1804  0.0644 -0.0108
19084PP      PP29188  15.682  13.761   3.508 -0.5477 -0.2794  0.0693
19085PP      PP29189  12.936   4.234  13.171  0.5270 -0.0255  0.3098
19086PP      PP29190   6.017   5.838   2.911 -0.2615 -0.1403  0.1641
19087PP      PP29191   7.246  15.719  10.274  0.1114  0.1727 -0.0792
19088PP      PP29192  10.073  12.723  10.333  0.0570  0.0175 -0.0077
19089PP      PP29193  12.334  11.936  11.025 -0.1005  0.0811  0.0119
19090PP      PP29194   5.497   0.940   9.148 -0.2197  0.0461 -0.1700
19091PP      PP29195   2.231   9.965   1.894 -0.0892  0.0603  0.1241
19092PP      PP29196  14.211  12.080   3.893  0.0137 -0.2503 -0.2568
19093PP      PP29197  12.894  10.192   0.068 -0.1852  0.1458 -0.1384
19094PP      PP29198  13.091   8.890   9.787 -0.1670  0.2774  0.0472
19095PP      PP29199  10.581   4.882   1.558 -0.1962 -0.0714 -0.0694
19096PP      PP29200   3.394   1.567   2.389  0.3986 -0.0704 -0.0955
19097PP      PP29201   0.846  12.156   0.807 -0.0327 -0.2456 -0.1244
19098PP      PP29202   6.011   4.192   8.862  0.0636 -0.1707 -0.1732
19099PP      PP29203   2.006   6.230  11.053  0.5102  0.0422 -0.2679
19100PP      PP29204   4.343  14.768   2.458 -0.1897  0.0520  0.1611
19101PP      PP29205   9.128   6.314   0.266  0.2253  0.3478  0.2430
19102PP      PP29206   9.510   5.557  10.801 -0.1140 -0.0972 -0.1081
19103PP      PP29207  11.341   7.615  10.630  0.2614  0.3118 -0.0664
19104PP      PP29208   1.780   3.889   9.050  0.2806  0.2567 -0.3258
19105PP      PP29209  12.858   2.743   3.933  0.0989 -0.1518 -0.0559
19106PP      PP29210  12.070   9.170  10.550 -0.1859  0.3009  0.1330
19107PP      PP29211   4.430   5.730   1.730 -0.1575  0.0373  0.1380
19108PP      PP29212   9.298   1.692   4.160  0.0179 -0.1771 -0.0212
19109PP      PP29213   7.192   2.981   3.978 -0.0287  0.0489 -0.0440
19110PP      PP29214   1.534   0.965   1.075  0.2337 -0.0160 -0.1796
19111PP      PP29215  10.318   2.365   1.959  0.0815 -0.0719  0.1879
19112PP      PP29216  15.259   5.433   3.438  0.1291  0.1614  0.1007
19113PP      PP29217   8.554   3.792   2.466 -0.1056  0.1855  0.0170
19114PP      PP29218  12.757   7.955  12.538 -0.0860 -0.2548 -0.0390
19115PP      PP29219   7.050  12.813  12.384 -0.4797  0.2110  0.1755
19116PP      PP29220   4.696   3.483  13.300 -0.1883  0.1292 -0.0327
19117PP      PP29221  10.412   9.932  10.662 -0.1335  0.0374 -0.0916
19118PP      PP29222   8.109  12.618  13.354 -0.3194 -0.2699 -0.0585
19119PP      PP29223   9.156  15.068   5.403  0.1653 -0.2527  0.0772
19120PP      PP29224   9.615   5.992  11.112  0.1034  0.0787  0.0780
19121PP      PP29225  14.470  10.128  13.042 -0.1398  0.1488  0.0438
19122PP      PP29226   7.628   9.037  12.075 -0.0248  0.2003  0.2441
19123PP      PP29227   1.908   7.720   2.913 -0.1761 -0.3645  0.0375
19124PP      PP29228   1.455   9.652   1.716  0.2976  0.2220 -0.0544
19125PP      PP29229   4.835  13.437   8.865 -0.0881 -0.0960  0.3049
19126PP      PP29230   5.328  10.644   5.643  0.4324  0.0077 -0.0036
19127PP      PP29231  10.063  10.939   4.493 -0.1555 -0.1073 -0.0753
19128PP      PP29232  13.502  10.959  10.227  0.0934 -0.3019  0.0429
19129PP      PP29233   6.480   1.591   2.964  0.0944 -0.3296 -0.0465
19130PP      PP29234  11.320  13.089  12.768 -0.0832  0.2972  0.1477
19131PP      PP29235   0.148  11.573   0.810 -0.0671 -0.2018  0.0809
19132PP      PP29236  13.164  15.646  12.864  0.3614 -0.2845  0.2786
19133PP      PP29237  12.983   0.438   0.358  0.0592  0.1992  0.0943
19134PP      PP29238   7.850   9.577   2.211 -0.2140 -0.0515 -0.0092
19135PP      PP29239   7.093   3.551  10.258 -0.2800 -0.0656 -0.3254
19136PP      PP29240   5.145  10.969   1.918 -0.1571  0.0228  0.1310
19137PP      PP29241   8.341  14.133   3.464  0.1966  0.0542  0.0960
19138PP      PP29242   0.835   7.066  13.303 -0.1414 -0.4520  0.1302
19139PP      PP29243   9.333   5.107  11.014  0.0503 -0.2746 -0.1057
19140PP      PP29244   3.620   1.913   2.694  0.2843  0.2424  0.3399
19141PP      PP29245   2.322   2.111   3.919  0.0096  0.2795 -0.1331
19142PP      PP29246   9.595  14.714   9.642 -0.1839 -0.2477 -0.1878
19143PP      PP29247  10.724   8.868   8.962  0.0196  0.1114 -0.0572
19144PP      PP29248   7.839  10.029  13.354  0.4252  0.1518 -0.4370
19145PP      PP29249   8.262   5.590   8.671  0.1017 -0.2176  0.0588
19146PP      PP29250   4.747   4.577   1.190  0.1905  0.1167  0.0351
19147PP      PP29251   6.789   2.683   1.665 -0.0780  0.1217 -0.3105
19148PP      PP29252  14.440  12.762   2.420 -0.0369 -0.0748 -0.1515
19149PP      PP29253   8.393   4.690   0.250 -0.0588  0.0857  0.0747
19150PP      PP29254  14.101   7.165   2.419 -0.0243  0.0140 -0.1980
19151PP      PP29255   4.573   9.730   8.750 -0.0608 -0.0598 -0.2806
19152PP      PP29256   1.742   0.064  11.911 -0.0409  0.2437 -0.0099
19153PP      PP29257   2.492   6.077   2.043  0.0623  0.1063 -0.3206
19154PP      PP29258   2.503   5.767  12.566  0.3525  0.1668 -0.1576
19155PP      PP29259   2.566  10.937   3.591  0.2086  0.4206 -0.3989
19156PP      PP29260   0.213   5.944   1.320  0.4965  0.3067 -0.1463
19157PP      PP29261   0.755   5.618  10.184  0.0452  0.2888  0.2643
19158PP      PP29262  10.423  12.928   2.056  0.0881 -0.0474 -0.1699
19159PP      PP29263   7.412   2.769   3.568  0.1554 -0.2901  0.0559
19160PP      PP29264   8.842  13.326  12.863  0.1033 -0.0444 -0.2676
19161PP      PP29265   0.090   7.027   2.254  0.0172  0.1943 -0.0445
19162PP      PP29266   8.645  13.949   1.677 -0.0748 -0.1056 -0.3808
19163PP      PP29267  10.974   5.169   8.654  0.0411  0.0324 -0.0468
19164PP      PP29268  12.568   0.150   0.892  0.2318 -0.2034 -0.2487
19165PP      PP29269   4.704  11.354  10.736  0.0373 -0.0822  0.0520
19166PP      PP29270   5.764   0.230  12.051 -0.0236 -0.0218  0.1839
19167PP      PP29271  11.580   6.552   1.465 -0.1468  0.3153 -0.4999
19168PP      PP29272  10.367   1.402   1.210 -0.0777 -0.0216  0.2299
19169PP      PP29273  14.870   1.661  10.586 -0.0675  0.2538  0.0406
19170PP      PP29274   9.419  14.860  13.265  0.3162 -0.1199  0.1921
19171PP      PP29275   7.748  13.796   0.296  0.3072  0.1804 -0.3064
19172PP      PP29276   7.053  13.660  13.008  0.0725 -0.2079 -0.0174
19173PP      PP29277   4.237  12.629   9.482 -0.1178 -0.2900  0.0503
19174PP      PP29278  15.340   0.084   2.256 -0.0663 -0.2173  0.0729
19175PP      PP29279  10.572   1.017   1.403 -0.2780  0.2383 -0.0949
19176PP      PP29280   9.179   5.474  11.884 -0.0961  0.1729 -0.1018
19177PP      PP29281   1.899   6.569  11.592  0.1245 -0.1543  0.0425
19178PP      PP29282  11.839   1.055   4.610  0.2966  0.2769 -0.2444
19179PP      PP29283   0.282  15.054  12.224 -0.1460 -0.1774 -0.1420
19180PP      PP29284   2.806   9.675   3.640  0.1704  0.1179  0.1827
19181PP      PP29285   3.702   7.255   8.982 -0.1796 -0.3324 -0.1138
19182PP      PP29286  14.963   6.838   2.403  0.2253 -0.1218 -0.2361
19183PP      PP29287  12.407   7.975   2.338 -0.0664 -0.2201  0.3358
19184PP      PP29288   3.218   2.582   5.022 -0.0065  0.2370 -0.1048
19185PP      PP29289  11.687   6.108   8.067 -0.1578  0.0644 -0.0037
19186PP      PP29290   9.066   8.105  12.786 -0.3258 -0.0339  0.1901
19187PP      PP29291  14.913   0.195   2.043  0.1124 -0.4166 -0.0341
19188PP      PP29292   9.964   5.077  13.095 -0.2048  0.2476 -0.2952
19189PP      PP29293   6.266   1.603   0.415 -0.2534 -0.1688 -0.0803
19190PP      PP29294  11.713  11.019   3.564  0.1648  0.1189  0.1447
19191PP      PP29295   1.429  12.899  10.855 -0.1196 -0.0098  0.3596
19192PP      PP29296   1.904  14.127   3.689  0.1338  0.1153  0.0397
19193PP      PP29297  12.982   7.947   1.068 -0.0131  0.1012 -0.3327
19194PP      PP29298   1.966  14.630   0.605  0.2197  0.1266 -0.1881
19195PP      PP29299   2.070  15.444   0.880 -0.1285  0.1109  0.1834
19196PP      PP29300  15.259   8.546   3.810 -0.0709 -0.0572 -0.2357
19197PP      PP29301  15.873   6.747   2.740  0.0270 -0.1247  0.2381
19198PP      PP29302  11.573  11.410   0.135 -0.0043 -0.0696  0.1199
19199PP      PP29303   6.368   6.971   2.002  0.0614  0.1275  0.0717
19200PP      PP29304   4.291   5.222   9.728  0.1795  0.1514 -0.1173
19201PP      PP29305   3.327  10.327  12.003 -0.1188 -0.0641 -0.1881
19202PP      PP29306   7.443   8.534  11.905  0.3038 -0.0018 -0.0664
19203PP      PP29307  13.165   5.180   2.958 -0.1558 -0.1640  0.2659
19204PP      PP29308   8.101   8.415  10.892 -0.2258  0.4046  0.2319
19205PP      PP29309  13.530   7.064  11.041  0.0795 -0.2983 -0.3694
19206PP      PP29310  13.479  10.298   3.973 -0.3537  0.2086 -0.0221
19207PP      PP29311   0.145   3.881  12.642 -0.1171  0.1620 -0.0344
19208PP      PP29312  12.914   8.644   2.568  0.0549  0.0295 -0.0877
19209PP      PP29313  10.253   5.501   2.382 -0.1378 -0.0607  0.3796
19210PP      PP29314  14.647  13.190   3.750 -0.2427 -0.1993 -0.0065
19211PP      PP29315   4.857   7.720   1.316  0.2331  0.0940 -0.2725
19212PP      PP29316   0.505   0.271   9.504  0.0783 -0.0380 -0.2601
19213PP      PP29317   6.989  14.016  11.826 -0.1655 -0.0606  0.1460
19214PP      PP29318   9.489   2.863   0.458  0.0682  0.0423  0.0791
19215PP      PP29319   3.096   2.225  13.432 -0.0251  0.0318  0.0021
19216PP      PP29320   8.357   1.793  10.036  0.0209 -0.0174 -0.0286
19217PP      PP29321   9.320   9.345   1.231 -0.0251  0.0957 -0.0540
19218PP      PP29322   6.856   0.205   3.609 -0.0918  0.0609  0.0215
19219PP      PP29323   4.555   3.722  12.206 -0.0044 -0.0722 -0.0390
19220PP      PP29324   3.786  12.934   2.108  0.1753 -0.3527  0.0271
19221PP      PP29325   1.292   1.765  12.093 -0.1543 -0.2773  0.1989
19222PP      PP29326   8.080  15.636   3.966 -0.0262 -0.0521 -0.1432
19223PP      PP29327  11.952  13.619  11.366 -0.0554  0.0722 -0.1854
19224PP      PP29328  13.475   3.497   9.124  0.2007  0.2229  0.0789
19225PP      PP29329   6.717   9.545   3.165  0.1123  0.1219 -0.0887
19226PP      PP29330   9.280  12.581  13.331  0.1698 -0.0566 -0.0769
19227PP      PP29331   2.678  13.522   0.200  0.0490 -0.2538 -0.0403
19228PP      PP29332  14.336  11.075  13.150  0.0349  0.2048 -0.1494
19229PP      PP29333  14.939   0.334   0.780 -0.0600  0.2485  0.1618
19230PP      PP29334   1.132  11.082  13.005  0.1168  0.0579 -0.0287
19231PP      PP29335   2.693  12.130   3.104 -0.1830  0.3024  0.2248
19232PP      PP29336   1.810   4.106  12.415  0.1785  0.0509  0.3254
19233PP      PP29337  10.855   2.197   4.670  0.0427  0.0726  0.2024
19234PP      PP29338   6.047  14.577  11.105  0.2051  0.1017 -0.1467
19235PP      PP29339  14.786   1.204  11.569  0.0947  0.0098 -0.0877
19236PP      PP29340   9.395  11.501   0.214 -0.0891 -0.1702 -0.0666
19237PP      PP29341   2.510  15.309   1.170  0.2585  0.1940  0.1254
19238PP      PP29342   2.139  13.205   0.950 -0.2978 -0.0106 -0.0483
19239PP      PP29343   8.897   4.600   3.782  0.1291 -0.2053  0.1320
19240PP      PP29344   8.741  15.860   2.587 -0.1230  0.4176 -0.0833
19241PP      PP29345  14.020   4.290   1.531 -0.2997  0.0199  0.3966
19242PP      PP29346   5.377  13.766   1.078  0.2222  0.1861 -0.1008
19243PP      PP29347   5.599   8.232   3.740 -0.0164 -0.0230 -0.1146
19244PP      PP29348   0.628  11.969   4.139 -0.1334  0.0309 -0.1636
19245PP      PP29349  15.591   1.655   9.752 -0.0024 -0.0194 -0.1493
19246PP      PP29350   7.805   1.857  13.207  0.0613  0.2758  0.0718
19247PP      PP29351   1.633   4.410   0.694  0.1593  0.0579 -0.0088
19248PP      PP29352   6.647   3.140   3.678  0.0944  0.1262  0.0076
19249PP      PP29353   7.382   6.485   3.114  0.1068  0.0256 -0.0915
19250PP      PP29354  11.679  12.114   2.619  0.1546 -0.0020  0.1415
19251PP      PP29355  14.258   9.482  13.450  0.3587 -0.2871  0.2884
19252PP      PP29356  14.134   2.092   2.362 -0.0792  0.1080  0.0408
19253PP      PP29357  11.718   4.870   8.708  0.1656  0.2971 -0.3649
19254PP      PP29358  11.489   3.811   0.475 -0.1764  0.1094 -0.2507
19255PP      PP29359  11.520  11.530  10.854  0.2760 -0.0441 -0.3140
19256PP      PP29360   4.515   5.723  12.659 -0.1264 -0.2424 -0.0691
19257PP      PP29361   4.544  15.062  10.891  0.1736 -0.0210  0.6029
19258PP      PP29362   3.424   0.783   9.798  0.1088 -0.0739  0.0444
19259PP      PP29363   1.317  10.634   0.101 -0.1205 -0.0141  0.1712
19260PP      PP29364   1.800   8.395   2.078 -0.0698 -0.1942 -0.3148
19261PP      PP29365  15.699   1.626   3.502 -0.1425 -0.0510  0.2919
19262PP      PP29366   5.152  14.817  11.263  0.1364 -0.1297  0.0455
19263PP      PP29367   3.587   2.380   2.341  0.1841 -0.0264 -0.1960
19264PP      PP29368  13.163   7.735  10.469  0.2156 -0.1817 -0.3704
19265PP      PP29369   9.065   2.184   4.321 -0.1654 -0.1274  0.0732
19266PP      PP29370   5.024   4.323  10.101 -0.0141 -0.0122 -0.0668
19267PP      PP29371  15.591   5.399  10.122  0.1574  0.1146  0.0860
19268PP      PP29372   1.753  12.300   1.884  0.0217 -0.2388 -0.2848
19269PP      PP29373   3.186  14.947  12.203  0.1322 -0.0357  0.0763
19270PP      PP29374  11.291  11.291   9.658  0.0057 -0.0662  0.1869
19271PP      PP29375   5.393   4.100   0.409  0.3013 -0.1154  0.1883
19272PP      PP29376  12.396  10.036   0.960 -0.0230 -0.0739  0.2448
19273PP      PP29377  12.447  12.822   0.676 -0.0004 -0.1772  0.2995
19274PP      PP29378   7.627  10.023   8.918  0.0842 -0.2082  0.0897
19275PP      PP29379   1.968  12.113   3.736 -0.1235 -0.1269 -0.1280
19276PP      PP29380   1.509   3.784   3.488  0.0843  0.2373 -0.1493
19277PP      PP29381   5.018   2.158  10.368 -0.0769 -0.1681  0.0718
19278PP      PP29382   7.986   8.894   3.039 -0.2948 -0.0410 -0.2945
19279PP      PP29383  14.310   5.045   2.135 -0.1784 -0.0099 -0.3281
19280PP      PP29384   5.773   4.799   0.222 -0.0038  0.1272 -0.4551
19281PP      PP29385  10.430  13.896  12.219 -0.2746  0.3664  0.4923
19282PP      PP29386  11.696  11.137   9.982  0.1423 -0.0279  0.2575
19283PP      PP29387  14.546   2.794  10.281 -0.0333  0.0216 -0.3016
19284PP      PP29388   2.553  14.357   3.286  0.0708 -0.1377  0.0494
19285PP      PP29389  11.003   2.220   1.395  0.0669  0.4726 -0.2622
19286PP      PP29390   5.252   6.314   2.485  0.0767  0.1707 -0.0939
19287PP      PP29391   3.105  11.034   3.248 -0.0080 -0.1516 -0.1182
19288PP      PP29392   9.116   3.146   4.596  0.2018 -0.1958 -0.1332
19289PP      PP29393  11.539   7.638  12.377  0.2324 -0.1129 -0.1172
19290PP      PP29394   0.213   0.190  10.747 -0.1627 -0.2136 -0.0257
19291PP      PP29395  14.168   4.270   9.896 -0.0077  0.0749 -0.1008
19292PP      PP29396   7.479  13.878  11.582  0.0302 -0.0982 -0.1425
19293PP      PP29397  13.015  13.758  13.417  0.2264 -0.1166 -0.2091
19294PP      PP29398   7.390   8.578   9.161 -0.2466  0.2093 -0.2049
19295PP      PP29399   6.838  13.695  13.536  0.1583  0.0342  0.2393
19296PP      PP29400  10.674  10.687   1.966  0.5136 -0.4667  0.1154
19297PP      PP29401   5.630   5.069   2.197  0.0102 -0.3498 -0.0354
19298PP      PP29402   9.279  11.518  10.044 -0.0434 -0.0356 -0.0175
19299PP      PP29403  11.246   6.173  10.181  0.1277 -0.3650  0.4119
19300PP      PP29404  11.293  12.105  11.385 -0.0521 -0.2577 -0.2073
19301PP      PP29405  14.576   3.002   9.830 -0.2414  0.0478 -0.1245
19302PP      PP29406   5.981   7.981  10.870 -0.2860  0.0206 -0.0058
19303PP      PP29407   3.185  13.961  10.334  0.2958  0.1018 -0.0665
19304PP      PP29408   3.585   8.822   9.794 -0.1243  0.1774  0.0490
19305PP      PP29409   0.587   1.273  10.971  0.3522  0.0058  0.3424
19306PP      PP29410   3.935   4.747   1.604 -0.0850 -0.0663 -0.0511
19307PP      PP29411   3.734   7.740   9.041  0.0913 -0.0473 -0.3660
19308PP      PP29412  11.447   4.704   9.191 -0.0613 -0.0371  0.1989
19309PP      PP29413   3.561   9.577  11.313  0.4325 -0.2185 -0.3757
19310PP      PP29414  13.876   6.274   2.447 -0.0416  0.2115 -0.0433
19311PP      PP29415   0.791  12.049   9.503  0.1451  0.0402  0.2721
19312PP      PP29416  10.234   1.682  13.148  0.0030  0.0874 -0.1697
19313PP      PP29417   7.061   9.246   3.584  0.0724  0.0290  0.3156
19314PP      PP29418   6.596   8.221   1.034 -0.1282 -0.2125 -0.0406
19315PP      PP29419   3.172   9.849   2.066 -0.3882  0.0756  0.0546
19316PP      PP29420   5.287  13.029  10.226  0.1769  0.3657  0.0866
19317PP      PP29421   6.766   4.619  11.241  0.0988  0.2288 -0.0940
19318PP      PP29422  10.382   4.822  12.585 -0.1348  0.0648  0.2355
19319PP      PP29423  13.666  13.485   0.177 -0.2525 -0.1342  0.0097
19320PP      PP29424   9.003   5.050  12.697 -0.0920  0.2650  0.0281
19321PP      PP29425  13.934  13.414  10.140  0.0351  0.0212  0.1058
19322PP      PP29426   0.055   8.642  13.487 -0.0596  0.0625 -0.0038
19323PP      PP29427   8.818   2.274  12.954 -0.1571  0.2553 -0.3121
19324PP      PP29428  11.218   0.631   1.802  0.1402 -0.1670  0.1053
19325PP      PP29429   9.003  13.910   0.908  0.1858  0.2213  0.0819
19326PP      PP29430  14.400   6.283  13.192 -0.0999  0.1944  0.0519
19327PP      PP29431   6.785   6.887  11.537 -0.4213  0.0174  0.1381
19328PP      PP29432   5.413   6.559   8.861  0.2942 -0.1136 -0.0583
19329PP      PP29433   6.707   1.781   0.645  0.3407  0.2003  0.2816
19330PP      PP29434   1.444   7.141   2.159  0.2803 -0.0060  0.1411
19331PP      PP29435  11.216   1.770   1.384  0.0286  0.0778 -0.5581
19332PP      PP29436   5.716   0.884   4.146  0.0534  0.0900 -0.2173
19333PP      PP29437  12.266   6.364  10.693 -0.1766  0.1856 -0.1335
19334PP      PP29438  11.229   2.314  13.064 -0.0476 -0.0161  0.0249
19335PP      PP29439   6.094   3.738   2.630  0.2888  0.2777 -0.0933
19336PP      PP29440   8.780   9.044  11.438  0.0309 -0.0389 -0.1335
19337PP      PP29441  11.067  13.811   1.950 -0.2322 -0.0089 -0.1934
19338PP      PP29442   3.454   9.064   0.576 -0.0727  0.0249  0.0534
19339PP      PP29443   5.924   5.665  10.058 -0.0088  0.0469 -0.0592
19340PP      PP29444   1.828   5.418  13.255  0.0332 -0.1102  0.2251
19341PP      PP29445   8.585  11.536   2.061  0.3624  0.1245 -0.1674
19342PP      PP29446   3.055   5.156  10.375  0.0632 -0.1239 -0.2200
19343PP      PP29447   8.120   5.636  12.775 -0.1550 -0.1423 -0.1249
19344PP      PP29448  13.564   0.538  12.444  0.0398  0.2030  0.0237
19345PP      PP29449   5.916  14.124   2.087  0.0210  0.0503 -0.2228
19346PP      PP29450   1.616   7.644   4.405  0.3545  0.0691  0.0151
19347PP      PP29451   7.009  15.534   9.152 -0.2182  0.0316 -0.1238
19348PP      PP29452   8.839  11.855   0.687 -0.2304  0.0148  0.0277
19349PP      PP29453  11.228  11.985  11.872  0.0898  0.0842  0.0204
19350PP      PP29454  11.499   3.290   2.801 -0.1185 -0.2489 -0.3028
19351PP      PP29455  13.629   1.199   4.085  0.0047  0.2997  0.2479
19352PP      PP29456  13.118  15.035   3.712 -0.0718  0.2916  0.3062
19353PP      PP29457   8.456  15.271   0.843  0.0651  0.2575  0.1231
19354PP      PP29458   7.491  13.876   1.639 -0.1806 -0.0219  0.1401
19355PP      PP29459  10.777  14.725   1.495 -0.1260  0.0906  0.1444
19356PP      PP29460   3.617   0.877  10.897  0.4170 -0.3181  0.0919
19357PP      PP29461   6.655  13.083   3.356  0.1436 -0.0918 -0.0852
19358PP      PP29462  13.053  13.867   3.827 -0.0196  0.0191  0.1928
19359PP      PP29463   3.036  10.278  12.405 -0.2295 -0.3038  0.2148
19360PP      PP29464   6.889  13.166  10.110 -0.3091 -0.3018  0.2909
19361PP      PP29465   3.117  12.041   1.207  0.2436  0.1482 -0.2071
19362PP      PP29466   4.624   8.162   2.369 -0.1264 -0.1368  0.1297
19363PP      PP29467  13.618  11.892   8.671  0.0573  0.0353 -0.0724
19364PP      PP29468   3.375  11.376  11.873 -0.3217 -0.0007  0.4610
19365PP      PP29469  14.164   0.941   1.765  0.1797 -0.2575  0.0924
19366PP      PP29470   8.554   0.900   0.565 -0.0021 -0.0625  0.2944
19367PP      PP29471   3.739  10.525   2.024  0.1191 -0.0442  0.2514
19368PP      PP29472   4.359   6.614   0.130 -0.1552  0.3358 -0.3417
19369PP      PP29473  13.720   8.041  11.236 -0.0023  0.1771  0.5748
19370PP      PP29474  15.018  12.350  10.528 -0.0237 -0.1634 -0.1555
19371PP      PP29475   1.297   0.621  12.009  0.2530  0.2300  0.1966
19372PP      PP29476  15.284   7.994   9.353 -0.3587  0.1589  0.2607
19373PP      PP29477   8.984   8.515   9.558 -0.1070 -0.0178  0.1275
19374PP      PP29478   3.302   5.541  12.102 -0.5099 -0.0968 -0.0309
19375PP      PP29479  10.315  13.302   1.701  0.2394 -0.2394 -0.4710
19376PP      PP29480  11.943   8.161  11.326 -0.2300 -0.1523 -0.0935
19377PP      PP29481   9.461   0.769   0.864 -0.1804  0.1415  0.3138
19378PP      PP29482  14.728  14.127   1.042 -0.0271 -0.1673 -0.0118
19379PP      PP29483   1.494   8.582  11.348  0.2279  0.2149 -0.1738
19380PP      PP29484   2.119   0.428   3.276 -0.2262 -0.0932 -0.3086
19381PP      PP29485   4.017   0.921   3.738  0.0565  0.0435  0.0951
19382PP      PP29486  13.647   2.379   1.217 -0.0451  0.1702  0.0983
19383PP      PP29487  13.792   0.870   2.202 -0.0730 -0.0130  0.2455
19384PP      PP29488   2.420   5.746   8.869  0.0350  0.1508  0.1327
19385PP      PP29489   2.654   0.303  10.342 -0.1742  0.2226  0.0073
19386PP      PP29490   5.789  12.804   2.822 -0.2867 -0.0582  0.4501
19387PP      PP29491   6.662  14.027  11.391  0.2260  0.0639  0.3389
19388PP      PP29492  14.651   9.028  12.267 -0.0355  0.2721  0.1329
19389PP      PP29493   0.899   6.951   1.494  0.3017  0.1107 -0.1820
19390PP      PP29494   6.417   1.449   9.391  0.2160 -0.4055  0.2806
19391PP      PP29495  12.879   4.794  11.389  0.2754  0.0700 -0.0726
19392PP      PP29496   9.623   5.968  12.628  0.0797  0.1710 -0.0392
19393PP      PP29497   7.053  13.630   9.262 -0.2277 -0.0080 -0.3672
19394PP      PP29498   7.492   8.457   4.221  0.0881  0.1252 -0.0403
19395PP      PP29499  12.170   8.974  12.587 -0.2365 -0.0989  0.1589
19396PP      PP29500  10.223  11.336  10.548 -0.0911  0.1161 -0.0601
19397PP      PP29501  11.917   8.397   9.542 -0.3481  0.0170 -0.0878
19398PP      PP29502  12.593   3.899  11.631  0.0793 -0.2234  0.1314
19399PP      PP29503  13.195  10.605   2.574 -0.1256 -0.1328  0.1973
19400PP      PP29504   3.432   1.291   3.420  0.1118  0.2191  0.2018
19401PP      PP29505   2.224   7.008   3.748 -0.0014  0.2257  0.0383
19402PP      PP29506   2.737   0.141   3.983  0.2371  0.1445 -0.1720
19403PP      PP29507   0.037  13.959   1.435  0.0345  0.0174 -0.3290
19404PP      PP29508  13.940   1.375   2.187  0.0891 -0.0264  0.0842
19405PP      PP29509   5.950   6.178   3.682 -0.1045  0.0781  0.2404
19406PP      PP29510   5.593  15.052   3.386 -0.1452  0.0201  0.1772
19407PP      PP29511   9.400  10.838   3.432 -0.0900 -0.1473 -0.1050
19408PP      PP29512   8.229   9.624   1.277 -0.1878  0.1995  0.1429
19409PP      PP29513  13.950   9.297  13.061 -0.2920 -0.1886  0.0962
19410PP      PP29514   8.354  11.821   9.519 -0.2615  0.0390 -0.1657
19411PP      PP29515   4.215   3.500  12.483  0.0290  0.0144  0.1574
19412PP      PP29516  11.265   0.157  10.625  0.2840 -0.1331 -0.1709
19413PP      PP29517  12.905  12.393   9.303 -0.0178 -0.2323 -0.0700
19414PP      PP29518   6.360   5.429   8.420 -0.0015  0.3180 -0.2359
19415PP      PP29519   0.933  13.748   4.286 -0.0476  0.1736 -0.2863
19416PP      PP29520  10.400  15.679  12.473 -0.1824  0.1151  0.3107
19417PP      PP29521   5.128   9.388  10.339 -0.1626  0.2969 -0.0826
19418PP      PP29522   1.965   5.737   4.477 -0.0343  0.2880  0.2588
19419PP      PP29523   3.613   9.295   1.500 -0.0899  0.0305 -0.0360
19420PP      PP29524  13.979  13.490   1.223  0.1472 -0.0582 -0.0038
19421PP      PP29525   9.090  11.701  12.690  0.0818  0.0062  0.0443
19422PP      PP29526   0.418   3.718   1.091 -0.0659 -0.1087 -0.2175
19423PP      PP29527   0.612  12.248   1.275  0.2565 -0.2342  0.0439
19424PP      PP29528   6.659   2.549   3.646  0.5229  0.1290  0.1969
19425PP      PP29529   7.692   7.690   3.069 -0.0076  0.1422 -0.1168
19426PP      PP29530   2.261   2.364  11.229  0.5069 -0.1023  0.0856
19427PP      PP29531   1.306  15.635   4.431 -0.2733  0.0774  0.0322
19428PP      PP29532   5.287   1.688  10.258 -0.1975 -0.3565  0.1303
19429PP      PP29533   6.995  11.527  11.875  0.2361 -0.1690 -0.0598
19430PP      PP29534   6.390  11.003   9.373 -0.1020 -0.2170 -0.2672
19431PP      PP29535   3.575   6.591  12.098  0.0927  0.0659  0.4560
19432PP      PP29536   9.753   3.575   1.765 -0.2390 -0.0685  0.4782
19433PP      PP29537  15.823   8.496   9.588 -0.1015  0.2660 -0.0380
19434PP      PP29538   9.638  12.079   1.489 -0.2344  0.0010  0.0197
19435PP      PP29539   1.940   6.574  12.196  0.0279  0.1800 -0.0732
19436PP      PP29540   0.454  15.888   3.836  0.0298 -0.0898 -0.0208
19437PP      PP29541   6.072   8.583   0.564  0.1570 -0.1013  0.2047
19438PP      PP29542   5.076   2.049   0.558  0.1811  0.0649 -0.1009
19439PP      PP29543   0.450   5.416   9.698 -0.1732  0.0097  0.0556
19440PP      PP29544   9.156   3.376   1.802  0.1310 -0.2113 -0.3897
19441PP      PP29545  13.251   9.546   3.473 -0.4882  0.5082  0.3579
19442PP      PP29546   3.999   7.166   9.898  0.0176 -0.0560  0.1511
19443PP      PP29547  14.315   8.620   9.950 -0.2551 -0.0924  0.3936
19444PP      PP29548  14.690   2.413  13.117  0.0610  0.3185 -0.3187
19445PP      PP29549  11.644   7.622  11.849 -0.1831  0.0490 -0.0999
19446PP      PP29550  12.152   8.313   2.880 -0.1964  0.0413 -0.1381
19447PP      PP29551   5.139  15.381   0.120 -0.0675 -0.1802  0.0190
19448PP      PP29552   8.192  14.859  10.407  0.0523 -0.5016 -0.1229
19449PP      PP29553   8.706   2.940   1.803  0.1510 -0.2047 -0.1806
19450PP      PP29554  12.291  13.719   1.273 -0.1566 -0.1101  0.5281
19451PP      PP29555   2.218   2.288  13.029 -0.2955  0.4366 -0.1767
19452PP      PP29556  10.724   6.186   0.810  0.3670  0.1790  0.1462
19453PP      PP29557  13.562  12.623  11.863 -0.0125 -0.0136 -0.0142
19454PP      PP29558   1.006   3.009   4.549  0.0814  0.2368  0.0502
19455PP      PP29559   8.939   4.885  11.870 -0.0437 -0.1159 -0.1817
19456PP      PP29560   4.969   7.196   8.599 -0.1673 -0.2195 -0.3357
19457PP      PP29561   2.839  12.234  12.737 -0.0553  0.2137  0.0709
19458PP      PP29562   5.598  14.075   4.417  0.4391  0.0007  0.0408
19459PP      PP29563  15.264   1.299  12.499  0.1059 -0.0697  0.0369
19460PP      PP29564   8.569   4.880   1.926  0.0994  0.0270  0.1062
19461PP      PP29565   9.785   4.686   2.815  0.1041 -0.0849 -0.1139
19462PP      PP29566   3.522  10.693   0.876  0.0471 -0.0376 -0.2318
19463PP      PP29567   3.362  12.487  10.803  0.0018 -0.0023  0.0209
19464PP      PP29568   8.929  11.702   0.176 -0.0232  0.2890 -0.1548
19465PP      PP29569   5.136  13.647   3.560 -0.0178 -0.4042  0.1907
19466PP      PP29570  15.176  13.133  12.388 -0.2259 -0.2397 -0.0919
19467PP      PP29571   9.586   4.658  10.205 -0.2999 -0.2483 -0.2020
19468PP      PP29572  12.625   4.208  10.626  0.3183 -0.0517 -0.2809
19469PP      PP29573   6.996   9.039   4.398  0.1464 -0.1015  0.1198
19470PP      PP29574  11.315   0.197  11.782  0.0108 -0.1211 -0.2308
19471PP      PP29575   2.227  13.819   2.962  0.1392 -0.0116 -0.2957
19472PP      PP29576  11.978   9.388   1.686 -0.0777 -0.1760 -0.1288
19473PP      PP29577   0.977   7.883   1.048 -0.0232 -0.1938  0.0285
19474PP      PP29578   2.245   8.980   9.318 -0.0931 -0.0326 -0.2167
19475PP      PP29579   3.666  10.787   9.227  0.0602  0.2383  0.0141
19476PP      PP29580   3.254  13.245  11.498 -0.1156 -0.0319 -0.0701
19477PP      PP29581   4.986  10.402  12.980 -0.2893 -0.5807 -0.0381
19478PP      PP29582  15.109  12.321   2.038  0.1794  0.4445 -0.2577
19479PP      PP29583   4.965   1.390  11.956  0.0285  0.0847 -0.1043
19480PP      PP29584  14.515   9.138   9.438 -0.3749 -0.3243 -0.1793
19481PP      PP29585   6.882   9.384   9.149 -0.1171 -0.1451 -0.0445
19482PP      PP29586  13.448  14.130  11.891  0.2275  0.1677 -0.1166
19483PP      PP29587  10.530   4.610   2.152  0.1564  0.1920 -0.1396
19484PP      PP29588  11.943   2.146  10.321  0.2221  0.2916 -0.1872
19485PP      PP29589  13.507   6.209  13.289  0.1048 -0.3389  0.1969
19486PP      PP29590   6.203  15.765   2.218 -0.1275  0.0502 -0.1713
19487PP      PP29591   1.995  10.817  13.069 -0.1223  0.1741 -0.0028
19488PP      PP29592  15.463   6.994  11.636  0.4577 -0.0454  0.5463
19489PP      PP29593  13.540   1.774  13.027  0.0950 -0.0864  0.0321
19490PP      PP29594  15.300   0.136   3.394 -0.0951  0.0807  0.0801
19491PP      PP29595   0.381   9.765   3.300 -0.1966  0.0016 -0.1497
19492PP      PP29596   7.289   1.734   1.546 -0.0497  0.1250 -0.0921
19493PP      PP29597   5.895   2.111  10.025  0.1192  0.0889  0.0574
19494PP      PP29598   2.475  14.037  11.040 -0.1901 -0.0648 -0.1852
19495PP      PP29599   6.285   5.573   9.704 -0.0434 -0.1516  0.2278
19496PP      PP29600   8.480  14.595   4.058 -0.2161 -0.2655 -0.0407
19497PP      PP29601  14.901   4.498  10.693 -0.0721 -0.2792  0.0854
19498PP      PP29602   0.732   7.390   1.292 -0.1799 -0.2355 -0.0209
19499PP      PP29603   1.762  12.327   3.250 -0.0448 -0.1181  0.1003
19500PP      PP29604   3.597   2.856   2.373 -0.2003 -0.1977 -0.1938
19501PP      PP29605   9.181   8.628  12.782 -0.0347  0.2887  0.0786
19502PP      PP29606  12.034   7.003   7.984  0.2204  0.1453 -0.0116
19503PP      PP29607   3.716  13.093   1.517 -0.0481 -0.3644  0.1662
19504PP      PP29608   6.193  15.264  11.514 -0.2213 -0.0317  0.0679
19505PP      PP29609   3.267   2.141  12.980  0.2070 -0.1559  0.1218
19506PP      PP29610   5.986  15.275   8.731  0.2038 -0.1814  0.0001
19507PP      PP29611   0.942   8.132  10.453  0.0777  0.1125  0.0857
19508PP      PP29612   4.118  15.030  10.535  0.2022  0.1913  0.1858
19509PP      PP29613   0.373  10.829   0.366 -0.0921 -0.1829 -0.0234
19510PP      PP29614  14.039   0.088   2.975 -0.1700 -0.0681 -0.3070
19511PP      PP29615   2.665   3.447   3.913 -0.0067  0.2220  0.0966
19512PP      PP29616   9.683   4.887   3.344 -0.0047  0.1008 -0.0097
19513PP      PP29617   3.745  12.735   1.095  0.1505  0.0872  0.1754
19514PP      PP29618   5.310  13.746  11.613 -0.0548  0.1648  0.3600
19515PP      PP29619  14.696  15.543   1.985  0.4306 -0.0622 -0.3004
19516PP      PP29620   0.142  13.307   3.120 -0.1181 -0.0238 -0.3014
19517PP      PP29621   0.315   5.911  13.083  0.0431 -0.1642  0.0561
19518PP      PP29622   7.728   7.489   3.905  0.1099  0.1170 -0.1273
19519PP      PP29623   2.467   1.459   8.906 -0.1595 -0.1708 -0.2362
19520PP      PP29624   5.911  15.374  12.303 -0.4173  0.2254  0.2472
19521PP      PP29625   4.408  11.127   0.920 -0.2340 -0.4340 -0.1641
19522PP      PP29626  10.866   3.193  10.569 -0.1391 -0.1620  0.0293
19523PP      PP29627   0.027   8.073  11.364  0.1167 -0.4922  0.1736
19524PP      PP29628  11.211  14.375   1.625  0.0173 -0.0004 -0.1418
19525PP      PP29629   4.493   8.520  13.052  0.4050  0.0398  0.0797
19526PP      PP29630  14.284   7.640  12.691 -0.2450 -0.2645  0.1960
19527PP      PP29631   8.115  13.669  11.957  0.1889  0.1395  0.0984
19528PP      PP29632   2.123   4.825   4.209 -0.0627 -0.4447 -0.1078
19529PP      PP29633  11.547  11.911  12.826 -0.1261 -0.1573 -0.0103
19530PP      PP29634  15.138   5.039   2.017 -0.0134  0.1546  0.0057
19531PP      PP29635  11.590  15.488  10.742 -0.0802 -0.0827 -0.1988
19532PP      PP29636   1.966   6.624   9.600  0.1898  0.4584  0.2999
19533PP      PP29637  13.481   0.586   1.278  0.0903  0.0489 -0.0740
19534PP      PP29638  13.005   5.686   3.898 -0.2200  0.1030  0.0035
19535PP      PP29639   5.011  11.554   1.158 -0.0457  0.2012 -0.2151
19536PP      PP29640   8.093   0.647   9.673  0.3675  0.1319  0.1262
19537PP      PP29641   5.344   2.476   1.110 -0.1620 -0.1369 -0.1589
19538PP      PP29642  12.497   8.709   0.497 -0.0961  0.2962 -0.1605
19539PP      PP29643  10.104   5.775  11.084 -0.0768  0.0010  0.2256
19540PP      PP29644   0.674   5.938   3.291 -0.2555 -0.0987  0.2115
19541PP      PP29645  13.354   8.450  11.182  0.2092  0.1076  0.1428
19542PP      PP29646   7.543  15.734   4.232  0.3222 -0.0980  0.2623
19543PP      PP29647   6.287  15.151   9.435 -0.1272 -0.2421  0.2553
19544PP      PP29648   0.128  14.650   9.936  0.0004 -0.0402  0.0976
19545PP      PP29649  15.396   3.390   9.902 -0.2007 -0.1076 -0.1918
19546PP      PP29650   8.577   8.206   1.951  0.3444  0.2288  0.2116
19547PP      PP29651  13.495   5.966  10.041  0.3912  0.1416 -0.0224
19548PP      PP29652   9.482  13.911   0.876  0.2336  0.0121 -0.1999
19549PP      PP29653   3.196   6.470  12.843 -0.1048  0.0605  0.1175
19550PP      PP29654   2.118  10.890   2.202  0.0375 -0.1386  0.1372
19551PP      PP29655   9.325   6.760   9.793  0.1981  0.2511  0.0646
19552PP      PP29656   0.460   5.239  11.464  0.4568 -0.0953 -0.2494
19553PP      PP29657  11.151   6.061   1.916 -0.7068  0.1589 -0.2680
19554PP      PP29658   3.502   6.928  12.445  0.1418  0.0556  0.0177
19555PP      PP29659   1.267   5.587   1.942  0.1357 -0.2557 -0.0558
19556PP      PP29660   2.361  11.557  11.348 -0.2071  0.0901  0.0855
19557PP      PP29661  13.317  10.831   4.122 -0.1154  0.1241  0.3408
19558PP      PP29662   7.030   4.827   2.232  0.5089 -0.4525 -0.1716
19559PP      PP29663   7.261  11.335  12.584 -0.0765 -0.2759 -0.0776
19560PP      PP29664  11.124   5.031   9.996  0.0828  0.1604 -0.0606
19561PP      PP29665   3.665  12.735   9.376 -0.1390 -0.0868 -0.0867
19562PP      PP29666  10.478  11.221  10.114 -0.0069 -0.4297  0.2185
19563PP      PP29667   9.108   1.080   0.479  0.2336  0.2289  0.0152
19564PP      PP29668   1.028  10.885   9.490 -0.0366  0.1779  0.2578
19565PP      PP29669  15.726  14.254   3.205  0.0320 -0.1808  0.0113
19566PP      PP29670   5.225   0.192   4.044 -0.1680  0.4258 -0.0186
19567PP      PP29671  10.733   9.472   1.500  0.0791 -0.1394  0.0359
19568PP      PP29672  11.393  10.663   8.817 -0.5699  0.2002 -0.2609
19569PP      PP29673  10.415   9.058  11.998 -0.0506  0.1094  0.3219
19570PP      PP29674   1.924   9.186  11.465 -0.2079  0.0714 -0.1409
19571PP      PP29675   2.319  12.758   1.216 -0.1058  0.0993  0.0745
19572PP      PP29676   8.578   3.391   1.465 -0.1430 -0.0242  0.1834
19573PP      PP29677   4.529  12.657   1.523  0.1212 -0.0812 -0.0314
19574PP      PP29678   5.695  11.104   3.231 -0.0341  0.1932  0.1152
19575PP      PP29679  14.733  13.490   9.749 -0.0747  0.1880 -0.4244
19576PP      PP29680  13.017   8.722   0.101 -0.0997  0.0328 -0.0534
19577PP      PP29681   1.841   5.997  11.484 -0.0849  0.2056 -0.1627
19578PP      PP29682   5.475  12.046  12.456 -0.1926 -0.2280  0.1433
19579PP      PP29683   1.603  15.129   2.445  0.2884  0.1522 -0.0766
19580PP      PP29684  14.077  15.827  12.117  0.1276  0.1327 -0.3256
19581PP      PP29685  10.415  15.727  11.946  0.0184 -0.2350 -0.0979
19582PP      PP29686   5.461  12.853  12.210 -0.1678  0.0491  0.1241
19583PP      PP29687   9.246  13.941  12.110  0.1038  0.2134  0.0337
19584PP      PP29688  14.575  10.078   3.689  0.2192  0.0864  0.0504
19585PP      PP29689   7.359  13.973   3.717 -0.0257  0.0064  0.2171
19586PP      PP29690  15.042  13.728   1.067  0.0412  0.3704  0.1247
19587PP      PP29691  13.653   8.327   0.651  0.0377  0.0188  0.1758
19588PP      PP29692  14.521   2.718  12.111  0.1122 -0.3990  0.3677
19589PP      PP29693   5.137   2.545  11.912 -0.0957  0.0278  0.1874
19590PP      PP29694   9.708   5.376  13.375 -0.2217  0.0283  0.3364
19591PP      PP29695   1.247   9.694   3.500  0.0992  0.1092  0.4574
19592PP      PP29696  14.819   2.450   9.227  0.0633 -0.1457  0.4438
19593PP      PP29697   1.632  10.871  11.877  0.1155 -0.1410 -0.0895
19594PP      PP29698   0.212   9.178  12.068  0.4890  0.2301 -0.0755
19595PP      PP29699  11.487   2.939   2.010 -0.1374  0.2986  0.0789
19596PP      PP29700  12.071   0.056   2.544  0.1539  0.0229 -0.0339
19597PP      PP29701  10.855   2.162   2.836  0.4153  0.1696  0.0963
19598PP      PP29702   8.926   0.427  12.782 -0.1492 -0.3881  0.0101
19599PP      PP29703   6.673   3.280   9.990 -0.0084 -0.1184  0.2415
19600PP      PP29704   1.698   2.249  12.932  0.1885  0.1028 -0.0154
19601PP      PP29705   3.600   5.130  10.454 -0.1223 -0.1178 -0.0916
19602PP      PP29706   2.142  15.229   4.357 -0.0894 -0.1387 -0.0313
19603PP      PP29707   7.579  15.045   2.314  0.0568  0.1016  0.0215
19604PP      PP29708   3.783   0.531  10.625 -0.0360  0.1747 -0.3431
19605PP      PP29709   4.385  13.966  13.271  0.1324 -0.2976  0.2341
19606PP      PP29710  15.216   5.598   2.886 -0.2892  0.0999 -0.0746
19607PP      PP29711   9.549   2.144  11.082  0.0939 -0.0933 -0.1211
19608PP      PP29712   0.105   4.249  11.326 -0.2583 -0.1188 -0.1968
19609PP      PP29713  15.409   6.541   2.777 -0.4496 -0.0596 -0.0900
19610PP      PP29714  14.134   8.172   0.650  0.2014 -0.1088 -0.2938
19611PP      PP29715  12.284   6.500  11.369  0.0867  0.1529 -0.2479
19612PP      PP29716  14.891   0.691  11.596  0.2160  0.1675 -0.2543
19613PP      PP29717  12.081  14.319  12.852  0.1603 -0.0227 -0.0239
19614PP      PP29718  12.325   4.424   8.820  0.1072 -0.3148  0.1227
19615PP      PP29719  15.638   1.382   2.163 -0.0588 -0.1412 -0.0515
19616PP      PP29720   0.233   7.932   9.541  0.1709 -0.1744 -0.1928
19617PP      PP29721   3.760   1.709   3.153  0.4141 -0.4189 -0.1168
19618PP      PP29722  12.885   5.838   3.201 -0.1353  0.2055  0.0175
19619PP      PP29723   7.502   4.579  12.301 -0.0435  0.1707  0.0835
19620PP      PP29724   2.604   0.930   2.821 -0.0796  0.0225 -0.1161
19621PP      PP29725  15.302   3.229   3.236  0.1160 -0.2379  0.0234
19622PP      PP29726   7.271   1.797  12.294  0.2710 -0.1104  0.2060
19623PP      PP29727   6.253  10.301   3.887 -0.2245 -0.1475  0.3573
19624PP      PP29728   8.009  14.780  12.563 -0.1450 -0.0606  0.0958
19625PP      PP29729   9.429   6.911   1.340 -0.2427  0.1359 -0.0335
19626PP      PP29730   9.105   1.352  10.131  0.1315  0.4979 -0.2245
19627PP      PP29731   0.417  15.530   2.280  0.1030  0.0051  0.1291
19628PP      PP29732  14.610   1.700   0.718  0.1329  0.1270  0.1292
19629PP      PP29733   4.614   5.589   2.191 -0.2519  0.0230 -0.1582
19630PP      PP29734   8.732   4.320   0.193 -0.0127 -0.0660 -0.0085
19631PP      PP29735  12.745   3.614  13.195 -0.0476 -0.2767  0.0939
19632PP      PP29736   2.379   4.107   1.526  0.1371  0.1056 -0.0435
19633PP      PP29737  14.422   6.912  10.941  0.2551  0.4179 -0.0064
19634PP      PP29738  15.114   8.495   1.553  0.2747  0.3445 -0.2090
19635PP      PP29739   5.406   8.388   2.844  0.1298 -0.0181  0.0024
19636PP      PP29740   8.396   4.625  12.814 -0.0075  0.1628 -0.0268
19637PP      PP29741   5.753   8.817  10.083 -0.0955 -0.1337 -0.3929
19638PP      PP29742   8.915   2.064   1.944  0.2321 -0.1972 -0.0931
19639PP      PP29743   8.438  10.724  11.718 -0.2937 -0.3913 -0.1826
19640PP      PP29744  14.525  14.342   9.313 -0.2140 -0.0060 -0.0249
19641PP      PP29745   1.908   4.123  11.075 -0.2171  0.3769  0.0374
19642PP      PP29746   7.991  11.068  13.413  0.0086 -0.1189 -0.1530
19643PP      PP29747  15.403   5.032   8.814  0.3945  0.2164  0.3282
19644PP      PP29748  13.707   5.299  11.556  0.0061 -0.3118 -0.1633
19645PP      PP29749  14.131   9.353  10.825  0.0208  0.1704 -0.1622
19646PP      PP29750   9.542  12.819   9.378  0.1099  0.0584 -0.1011
19647PP      PP29751   9.796   6.098   9.581  0.1609  0.2767  0.0509
19648PP      PP29752   7.837   8.658   3.915  0.0068 -0.1089 -0.1563
19649PP      PP29753  12.108   9.695  11.581  0.2048  0.4056  0.2793
19650PP      PP29754   7.876   7.473   2.633 -0.0570  0.0792  0.1863
19651PP      PP29755   1.347  14.158   3.977 -0.2985  0.2915 -0.0399
19652PP      PP29756   8.975  14.799   1.633  0.5818 -0.1499 -0.1199
19653PP      PP29757   2.408  12.661  12.671 -0.1169  0.0770  0.2234
19654PP      PP29758   0.306   8.434   1.463  0.3069 -0.1989 -0.2802
19655PP      PP29759  14.614  11.850   2.772 -0.2475 -0.0203 -0.4581
19656PP      PP29760   2.466   1.871  11.035 -0.1520  0.0324 -0.0325
19657PP      PP29761  15.767   6.865  11.234 -0.1740 -0.1721 -0.0489
19658PP      PP29762   6.635  14.835   3.590  0.0564  0.0524  0.2424
19659PP      PP29763   5.367   7.566   1.346  0.0367 -0.0727  0.2570
19660PP      PP29764   7.209  14.909   9.860  0.1257 -0.2599 -0.1627
19661PP      PP29765   7.295   3.386  12.704 -0.2500  0.0020 -0.3222
19662PP      PP29766  10.247  10.775  12.177 -0.0206  0.4838 -0.1643
19663PP      PP29767  11.807   8.045   0.509  0.3394  0.0716  0.1624
19664PP      PP29768   4.604   2.876  10.033  0.0053 -0.1758  0.3611
19665PP      PP29769  13.402  11.964   4.436 -0.1221  0.2392  0.2111
19666PP      PP29770  10.592  14.999   3.879  0.1140  0.0249  0.0441
19667PP      PP29771  15.622  11.818  13.112  0.0942 -0.4155  0.1480
19668PP      PP29772   0.908   8.672   0.525  0.2988  0.0394 -0.0918
19669PP      PP29773  13.321   0.610   0.742 -0.0892 -0.1628 -0.1507
19670PP      PP29774  14.442   0.189   2.211  0.0995 -0.0488  0.0312
19671PP      PP29775   3.877   3.950  13.162 -0.2001 -0.0885 -0.2098
19672PP      PP29776  14.968   7.975  12.230 -0.0938  0.0272 -0.2835
19673PP      PP29777   9.022  15.084   9.269 -0.2019  0.2451 -0.1812
19674PP      PP29778  11.751   4.282  10.220 -0.0289 -0.1765 -0.1493
19675PP      PP29779   3.861   4.878  13.363  0.1817 -0.0244  0.2849
19676PP      PP29780   0.414  12.850   0.694  0.1728  0.0653  0.2200
19677PP      PP29781   2.758   0.629  11.356 -0.2075 -0.1709  0.0070
19678PP      PP29782   2.676  14.100  10.009  0.1509  0.0600  0.1601
19679PP      PP29783   4.823   2.034   1.880  0.0716  0.0478 -0.0960
19680PP      PP29784   7.978   7.322  10.447  0.0345  0.0393  0.2174
19681PP      PP29785   5.799  10.654  11.503  0.1484  0.0541  0.2204
19682PP      PP29786  12.484  15.741  10.289 -0.2255 -0.1690 -0.0598
19683PP      PP29787   3.544   7.035   4.243 -0.1933  0.1482  0.3850
19684PP      PP29788   0.905  14.807  12.406 -0.1292  0.0899 -0.0511
19685PP      PP29789  11.511   8.946  12.070 -0.3077 -0.2689 -0.0374
19686PP      PP29790   3.683  10.380  11.636  0.2867 -0.1739 -0.4345
19687PP      PP29791   3.703  12.121   2.943  0.5366 -0.0238 -0.0908
19688PP      PP29792   1.875  11.295   1.790 -0.0743  0.0339  0.0370
19689PP      PP29793   0.738  11.194   3.721 -0.0346 -0.3137  0.3484
19690PP      PP29794   8.976   0.975   1.423 -0.0868  0.0473 -0.3604
19691PP      PP29795   7.826   4.522   9.233 -0.1179  0.2028 -0.2533
19692PP      PP29796  14.639   1.209  12.597  0.2348  0.4537  0.0203
19693PP      PP29797   1.323   1.842   1.091  0.5094 -0.0477  0.0255
19694PP      PP29798  10.272   8.860   2.850  0.0593  0.2286 -0.1206
19695PP      PP29799  15.263   2.755   3.096  0.0901  0.1358  0.0086
19696PP      PP29800   9.233   0.960  13.036 -0.2693  0.0354  0.0812
19697PP      PP29801  11.148  14.988  11.590  0.1527 -0.1716 -0.2144
19698PP      PP29802  12.623   0.237  11.846 -0.1657 -0.3035  0.1597
19699PP      PP29803   8.003  10.947   2.729 -0.0444 -0.2679 -0.0081
19700PP      PP29804   2.319  10.523  10.333 -0.0910  0.1527  0.1066
19701PP      PP29805  13.134  10.470   1.489 -0.0849 -0.0870 -0.0393
19702PP      PP29806   5.803   3.553   3.605 -0.0952  0.2095 -0.2145
19703PP      PP29807  15.518  10.731   0.926  0.4010 -0.2025  0.0507
19704PP      PP29808   0.833   3.620  11.271  0.2224  0.2431  0.2201
19705PP      PP29809  11.960   6.159   1.406  0.0990 -0.0864 -0.1843
19706PP      PP29810   0.295  14.074   2.151  0.1669 -0.0126  0.1316
19707PP      PP29811   1.462   5.794  13.281  0.3695 -0.0326 -0.1066
19708PP      PP29812   9.706   9.688  12.131  0.1568  0.4275 -0.0152
19709PP      PP29813  12.931   0.983   0.004 -0.1263 -0.0460 -0.0318
19710PP      PP29814   1.137   1.764   2.494 -0.0998 -0.1234 -0.1350
19711PP      PP29815   9.148  11.070   9.168  0.1815 -0.0836  0.0557
19712PP      PP29816  11.709   1.713   9.459  0.2549  0.3425  0.0566
19713PP      PP29817   6.235   6.219   4.102  0.0756 -0.0558 -0.1485
19714PP      PP29818   0.534   1.187  11.833  0.0757  0.1319  0.2562
19715PP      PP29819   6.694   6.473  10.945 -0.0855  0.2573  0.2194
19716PP      PP29820   8.025   7.989  11.103 -0.1945  0.1825 -0.2293
19717PP      PP29821   0.276  11.216   3.962 -0.1547  0.2722 -0.1208
19718PP      PP29822  11.139   8.292   0.115 -0.1876  0.0721  0.0548
19719PP      PP29823   3.256   6.091  11.337  0.1069 -0.0378  0.0186
19720PP      PP29824   3.121   7.018   2.618  0.1192  0.4051 -0.0290
19721PP      PP29825   9.695   6.376   3.531  0.2084  0.5043 -0.0402
19722PP      PP29826   8.957  10.799  12.329  0.2360  0.0807  0.0856
19723PP      PP29827   5.222   9.166  12.799 -0.1040  0.3256 -0.0114
19724PP      PP29828   5.560   8.218   4.256  0.2396  0.2353 -0.0797
19725PP      PP29829  10.207  13.896   8.858 -0.1016 -0.2954  0.0341
19726PP      PP29830   5.988   3.459   0.292  0.1207  0.2849  0.1189
19727PP      PP29831  13.814   2.871   2.968  0.1138 -0.1314  0.2835
19728PP      PP29832   9.765   1.885   9.739  0.2238  0.0992 -0.1408
19729PP      PP29833  12.844   6.024  11.967 -0.0498 -0.1771 -0.0317
19730PP      PP29834   8.133   6.264  13.507  0.1409  0.0746  0.2534
19731PP      PP29835   7.475   1.179   9.522 -0.2200  0.1036  0.3233
19732PP      PP29836  15.233  13.203  11.847 -0.1826  0.0960 -0.0820
19733PP      PP29837  15.236  14.134   0.644 -0.2855  0.1986 -0.0754
19734PP      PP29838   1.938  14.662   2.866  0.2705 -0.1392 -0.0360
19735PP      PP29839   4.736  11.257   2.291 -0.2677  0.1170 -0.0437
19736PP      PP29840   1.163   8.706  11.024  0.0099  0.0521  0.0249
19737PP      PP29841   2.881   4.776  12.208  0.1410 -0.0727 -0.0105
19738PP      PP29842  10.826  15.851   9.479 -0.1349 -0.2162  0.0304
19739PP      PP29843  11.776   6.854  12.562  0.1586  0.0806 -0.1012
19740PP      PP29844   6.395   7.142   3.699 -0.1226  0.0089  0.0635
19741PP      PP29845   1.411   3.950   1.420  0.0455  0.1199  0.0422
19742PP      PP29846  13.538   4.467  12.080  0.4344 -0.0824 -0.1636
19743PP      PP29847   2.045   7.342   0.091 -0.1084  0.0073  0.2319
19744PP      PP29848   7.199   7.992   9.878 -0.1204  0.1357  0.2557
19745PP      PP29849   5.176   8.401   3.504 -0.0761  0.0517 -0.0951
19746PP      PP29850   0.449   4.680  12.122  0.0037 -0.1994 -0.1870
19747PP      PP29851   1.975   2.884   3.532 -0.1949  0.0206  0.1110
19748PP      PP29852  10.620  14.742  12.211 -0.0252 -0.0042 -0.1136
19749PP      PP29853   5.144   6.472  10.785 -0.1785 -0.1900 -0.2938
19750PP      PP29854   6.191  11.912   0.471 -0.0706  0.0016  0.1431
19751PP      PP29855   5.922   5.162  13.010  0.0267  0.0646  0.3321
19752PP      PP29856  13.713  13.719  10.891  0.1615 -0.0643 -0.0242
19753PP      PP29857   7.623   4.173  10.838 -0.1095 -0.2479 -0.0746
19754PP      PP29858   0.610  13.490   3.703  0.4278  0.0286  0.1104
19755PP      PP29859  15.012   5.166   9.537  0.0241 -0.0711 -0.3246
19756PP      PP29860   4.575   1.045   0.910 -0.3248 -0.0846 -0.0733
19757PP      PP29861   7.238   4.225   2.111 -0.3549  0.1093 -0.0181
19758PP      PP29862   4.334   4.826  12.668 -0.0659 -0.1606  0.4323
19759PP      PP29863   9.021  13.402  12.077 -0.1482 -0.3688 -0.0817
19760PP      PP29864   1.910   9.654  10.687 -0.0651 -0.0204  0.0685
19761PP      PP29865   1.498   9.490   9.589  0.0582 -0.3281 -0.0938
19762PP      PP29866   2.863  11.424  13.303 -0.2512 -0.0423 -0.2126
19763PP      PP29867  11.463   2.102   1.051  0.0921  0.1784  0.0257
19764PP      PP29868   9.062   7.948  12.303 -0.2697  0.0332 -0.0773
19765PP      PP29869  10.897   0.297   1.559 -0.1546 -0.2032 -0.2940
19766PP      PP29870   2.002   3.977   0.571  0.4264  0.3542 -0.3468
19767PP      PP29871   9.025   3.723   3.874  0.0424  0.2196  0.2284
19768PP      PP29872   0.175  15.653   3.165  0.2819  0.0916  0.1307
19769PP      PP29873  11.466   4.963  12.161 -0.1530 -0.1470 -0.0436
19770PP      PP29874  12.270   4.565   1.572 -0.1213  0.1261 -0.1559
19771PP      PP29875   0.348   7.798   1.905 -0.0254 -0.2847 -0.1198
19772PP      PP29876  13.183   6.896   1.048 -0.1735 -0.0924 -0.0240
19773PP      PP29877   6.676  10.564   1.045 -0.1580  0.1353 -0.1571
19774PP      PP29878   9.690  12.351   4.612  0.1819 -0.3047 -0.0150
19775PP      PP29879  13.053   1.700   2.330  0.0518 -0.1994  0.2453
19776TPN    PA129880  14.947   3.329   9.003  0.0046  0.2024  0.0879
19776TPN    PA229881  15.051   3.206   8.830  0.0041 -0.2469 -0.1643
19776TPN    PA329882  15.083   3.426   8.746 -0.0085  0.3427  0.0466
19776TPN    PA429883  15.032   3.397   8.515 -0.2439 -0.0363  0.0559
19777TPN    PA129884   9.543   4.987   4.846  0.2135 -0.1664  0.2705
19777TPN    PA229885   9.580   4.829   5.011 -0.0457 -0.0437  0.0052
19777TPN    PA329886   9.783   4.885   4.952 -0.5325  0.2799  0.0665
19777TPN    PA429887   9.906   4.912   5.145  0.2371  0.0436  0.1421
19778TPN    PA129888   0.141   8.045   4.553 -0.0769 -0.0297 -0.0980
19778TPN    PA229889   0.259   8.156   4.747 -0.4304  0.6111 -0.2597
19778TPN    PA329890   0.371   8.268   4.617  0.2759  0.0982  0.2938
19778TPN    PA429891   0.363   8.482   4.754  0.3581 -0.1799  0.3702
19779TPN    PA129892  10.336   9.432   8.329  0.0669 -0.1654  0.0131
19779TPN    PA229893  10.481   9.622   8.234  0.0504 -0.1846 -0.1496
19779TPN    PA329894  10.312   9.746   8.258  0.2243 -0.1700 -0.0175
19779TPN    PA429895  10.282   9.884   8.052 -0.1188 -0.0574  0.2324
19780TPN    PA129896  11.079   0.191   9.203  0.1520 -0.0674  0.0745
19780TPN    PA229897  11.219   0.086   9.042  0.0018  0.0254 -0.0724
19780TPN    PA329898  11.389   0.202   9.099  0.1181  0.0717  0.0109
19780TPN    PA429899  11.561   0.163   8.942 -0.0348  0.0829 -0.0130
19781TPN    PA129900   5.010   9.900   4.769  0.4545 -0.5323 -0.2580
19781TPN    PA229901   4.972   9.976   4.534 -0.4887 -0.5813 -0.1855
19781TPN    PA329902   4.841   9.771   4.540 -0.0703 -0.1203  0.0158
19781TPN    PA429903   4.637   9.819   4.406 -0.3967  0.2468  0.1431
19782TPN    PA129904   9.478  14.358   2.683 -0.1656  0.0161 -0.0320
19782TPN    PA229905   9.376  14.528   2.805 -0.2112 -0.5280 -0.1936
19782TPN    PA329906   9.398  14.658   2.615 -0.1127  0.1054 -0.0419
19782TPN    PA429907   9.508  14.887   2.693 -0.1810  0.1705 -0.5458
19783TPN    PA129908  15.431   0.466   1.435 -0.0859 -0.1076  0.0521
19783TPN    PA229909  15.327   0.661   1.385 -0.7303 -0.1287  0.0196
19783TPN    PA329910  15.484   0.789   1.523 -0.2664  0.2936  0.2144
19783TPN    PA429911  15.416   1.013   1.491 -0.1201 -0.2796  0.3864
19784TPN    PA129912   7.301   7.084   9.378  0.3629  0.1956  0.0938
19784TPN    PA229913   7.230   6.997   9.571  0.2287  0.2644 -0.3563
19784TPN    PA329914   7.063   7.150   9.569 -0.1028 -0.3031  0.0226
19784TPN    PA429915   6.837   7.030   9.607 -0.1199  0.0525  0.1669
19785TPN    PA129916  12.617  13.660  13.142  0.1268 -0.2663 -0.0428
19785TPN    PA229917  12.678  13.512  13.325  0.0026 -0.1666 -0.6918
19785TPN    PA329918  12.815  13.435  13.175 -0.1141  0.0517 -0.1453
19785TPN    PA429919  12.814  13.191  13.231 -0.4721  0.1456  0.0891
19786TPN    PA129920   2.713   7.832   3.479  0.0440  0.2473  0.0726
19786TPN    PA229921   2.943   7.867   3.541 -0.0954  0.0758  0.3762
19786TPN    PA329922   2.914   8.056   3.594 -0.0440 -0.1609 -0.3288
19786TPN    PA429923   3.114   8.218   3.519  0.3053  0.3291 -0.1660
19787TPN    PA129924   5.113  10.140   8.801  0.0014  0.0370 -0.0944
19787TPN    PA229925   5.040  10.300   8.631  0.1713 -0.1189 -0.1953
19787TPN    PA329926   5.011  10.424   8.782 -0.1158  0.2295 -0.0628
19787TPN    PA429927   5.106  10.629   8.711  0.2159 -0.0502  0.1689
19788TPN    PA129928   5.894   8.360  10.109  0.0107  0.3876  0.0298
19788TPN    PA229929   5.861   8.457   9.890 -0.4140  0.4230 -0.0466
19788TPN    PA329930   5.923   8.252   9.819 -0.2555 -0.0040  0.2391
19788TPN    PA429931   6.081   8.325   9.617  0.4184  0.2446 -0.0067
19789TPN    PA129932   6.057   5.202   3.816 -0.4141  0.2190 -0.0624
19789TPN    PA229933   6.244   5.334   3.824  0.2750 -0.6806 -0.0630
19789TPN    PA329934   6.096   5.503   3.893  0.0886 -0.1543 -0.0735
19789TPN    PA429935   6.217   5.709   3.861  0.1250 -0.2098  0.0632
19790TPN    PA129936   7.180  11.910  10.563  0.0587 -0.3426  0.4400
19790TPN    PA229937   7.422  11.989  10.512  0.1241  0.1567 -0.0145
19790TPN    PA329938   7.319  12.162  10.473  0.0460  0.0208 -0.1102
19790TPN    PA429939   7.435  12.273  10.307  0.4871  0.0734  0.0372
19791TPN    PA129940   9.935  14.572  11.014 -0.0008  0.2800  0.2804
19791TPN    PA229941   9.839  14.782  11.054  0.0929  0.0824  0.1313
19791TPN    PA329942  10.048  14.860  11.091  0.0894  0.0405  0.1224
19791TPN    PA429943  10.059  15.095  11.151 -0.5456 -0.1265  0.0840
19792TPN    PA129944  11.567   0.431  11.528  0.1351 -0.1707  0.3667
19792TPN    PA229945  11.728   0.617  11.546 -0.1702 -0.0420  0.2721
19792TPN    PA329946  11.825   0.468  11.678 -0.0788 -0.0693  0.4509
19792TPN    PA429947  12.076   0.436  11.586  0.4063  0.0596 -0.2655
19793TPN    PA129948   4.948  12.203   8.748  0.0610  0.1383 -0.3939
19793TPN    PA229949   4.789  12.119   8.921  0.1301 -0.6848  0.0554
19793TPN    PA329950   4.654  12.104   8.742 -0.4697 -0.2110 -0.2611
19793TPN    PA429951   4.602  11.860   8.742  0.0599 -0.1029 -0.0425
19794TPN    PA129952   1.834   5.096   9.869 -0.0025  0.1723 -0.1953
19794TPN    PA229953   1.919   4.892   9.800 -0.1429 -0.2617  0.0929
19794TPN    PA329954   2.114   4.964   9.876 -0.0747  0.0071  0.0106
19794TPN    PA429955   2.241   4.757   9.899 -0.1977  0.0479  0.3264
19795TPN    PA129956  12.433  11.505   1.477  0.0812  0.1000 -0.2608
19795TPN    PA229957  12.254  11.434   1.619  0.4163  0.1711 -0.0127
19795TPN    PA329958  12.256  11.595   1.765 -0.0643 -0.0327 -0.1848
19795TPN    PA429959  12.200  11.508   1.988 -0.1963 -0.1254 -0.2270
19796TPN    PA129960   0.268  14.639   8.926  0.0595  0.0753 -0.0638
19796TPN    PA229961   0.274  14.406   8.865  0.4746  0.3594 -0.0220
19796TPN    PA329962   0.389  14.375   9.040 -0.0405  0.0800  0.0984
19796TPN    PA429963   0.597  14.251   8.979 -0.3098  0.0187 -0.1535
19797TPN    PA129964   0.364   0.841   4.269 -0.1052  0.3420 -0.1621
19797TPN    PA229965   0.159   0.699   4.217  0.0020 -0.2621  0.1148
19797TPN    PA329966   0.264   0.518   4.278 -0.1684 -0.1237 -0.3968
19797TPN    PA429967   0.208   0.348   4.138  0.0562  0.0764  0.0635
19798TPN    PA129968  14.326   6.266   4.004  0.2468 -0.0257  0.2684
19798TPN    PA229969  14.148   6.308   4.118 -0.2325 -0.0744  0.0651
19798TPN    PA329970  14.254   6.209   4.304  0.0195 -0.0104  0.0019
19798TPN    PA429971  14.085   6.234   4.469 -0.1230 -0.1253  0.0290
19799TPN    PA129972   6.761  13.882   4.779  0.1399 -0.1510  0.0640
19799TPN    PA229973   6.968  14.012   4.824 -0.2536  0.4263  0.0082
19799TPN    PA329974   6.848  14.111   4.954 -0.3514 -0.0059  0.1111
19799TPN    PA429975   6.976  14.141   5.142 -0.0023 -0.4622 -0.3410
19800TPN    PA129976   5.473   7.138   8.125  0.2968  0.2201 -0.1068
19800TPN    PA229977   5.364   7.073   7.913 -0.0743  0.0235 -0.2030
19800TPN    PA329978   5.308   7.247   7.874  0.1246 -0.1289 -0.2085
19800TPN    PA429979   5.365   7.300   7.622  0.1173 -0.0197 -0.2259
19801TPN    PA129980  11.717   5.112   2.915  0.1284 -0.1521  0.1458
19801TPN    PA229981  11.828   5.227   3.126  0.1072  0.2513 -0.1651
19801TPN    PA329982  11.969   5.095   3.041 -0.3520 -0.0247  0.0102
19801TPN    PA429983  12.194   5.188   3.016  0.2564  0.2134 -0.0247
19802TPN    PA129984   6.249   8.432  10.801 -0.1058 -0.0236  0.3560
19802TPN    PA229985   6.310   8.619  10.651 -0.0219  0.4716  0.3969
19802TPN    PA329986   6.185   8.754  10.723  0.1855  0.4102  0.2269
19802TPN    PA429987   6.313   8.963  10.704  0.0045  0.0072  0.1654
19803TPN    PA129988   8.242   2.722   9.007 -0.3290 -0.0642  0.1188
19803TPN    PA229989   8.403   2.890   8.949  0.2283 -0.0472 -0.2005
19803TPN    PA329990   8.522   2.724   9.037  0.0704  0.3656 -0.0144
19803TPN    PA429991   8.725   2.696   8.912 -0.0474 -0.3237 -0.1643
19804TPN    PA129992  15.335   8.813  11.461 -0.0257  0.1892 -0.0216
19804TPN    PA229993  15.264   8.947  11.270 -0.0057  0.1328  0.5139
19804TPN    PA329994  15.458   8.873  11.181  0.5388 -0.2459  0.2481
19804TPN    PA429995  15.574   9.079  11.102  0.3156  0.1650  0.4160
19805TPN    PA129996   8.258  15.819   2.898  0.0991 -0.1272 -0.2502
19805TPN    PA229997   8.096  15.736   3.085  0.3822 -0.2332  0.0883
19805TPN    PA329998   8.032  15.925   3.119 -0.3215  0.4968 -0.0295
19805TPN    PA429999   7.791  15.918   3.074  0.3972 -0.0516  0.1431
19806TPN    PA130000   9.726  12.004   2.605 -0.2258  0.3202  0.0571
19806TPN    PA230001   9.559  11.896   2.737 -0.3615 -0.1458  0.3887
19806TPN    PA330002   9.717  11.781   2.804  0.1338  0.0314 -0.1979
19806TPN    PA430003   9.696  11.755   3.050 -0.0020 -0.0281  0.0590
19807TPN    PA130004   9.285   5.700   4.347  0.1862  0.1482 -0.0143
19807TPN    PA230005   9.289   5.876   4.207 -0.1086 -0.4378  0.1243
19807TPN    PA330006   9.502   5.864   4.231 -0.1067 -0.2698 -0.1069
19807TPN    PA430007   9.562   6.099   4.291 -0.0423 -0.3217 -0.1501
19808TPN    PA130008   2.656  10.495   9.181  0.1884  0.2246  0.5452
19808TPN    PA230009   2.765  10.271   9.117 -0.0332  0.0753  0.1549
19808TPN    PA330010   2.768  10.246   9.335  0.2353 -0.3705 -0.1117
19808TPN    PA430011   2.680  10.034   9.390  0.1367 -0.1559 -0.3045
19809TPN    PA130012   9.276   9.169  12.601  0.2219 -0.0365  0.1648
19809TPN    PA230013   9.396   9.395  12.589  0.0695  0.2309  0.1444
19809TPN    PA330014   9.528   9.256  12.486 -0.0248  0.2275 -0.1746
19809TPN    PA430015   9.744   9.265  12.621  0.0675  0.3237 -0.4053
19810TPN    PA130016   4.538  10.043   4.859 -0.4415  0.0497  0.0848
19810TPN    PA230017   4.636   9.840   4.941 -0.3099  0.0710 -0.2192
19810TPN    PA330018   4.491   9.712   4.860 -0.0272 -0.0608 -0.0733
19810TPN    PA430019   4.502   9.521   4.996  0.2849  0.0844 -0.0836
19811TPN    PA130020  11.069  11.748   9.673  0.0859  0.4317 -0.1449
19811TPN    PA230021  11.151  11.978   9.695 -0.3352  0.0580 -0.0149
19811TPN    PA330022  11.079  12.027   9.520 -0.2251 -0.1177 -0.1917
19811TPN    PA430023  11.256  12.094   9.366 -0.3269  0.0733  0.2498
19812TPN    PA130024   6.398   8.205  10.020  0.3185 -0.2330 -0.2738
19812TPN    PA230025   6.487   8.165  10.246  0.2561 -0.1919 -0.0774
19812TPN    PA330026   6.279   8.299  10.286 -0.0419  0.0341 -0.2361
19812TPN    PA430027   6.174   8.182  10.499  0.0828 -0.0933  0.2915
19813TPN    PA130028  11.254   6.573   3.872 -0.2229  0.0605  0.0631
19813TPN    PA230029  11.358   6.361   3.789  0.2565 -0.1500 -0.3284
19813TPN    PA330030  11.151   6.283   3.883 -0.1094 -0.2547  0.1574
19813TPN    PA430031  11.027   6.156   3.709 -0.0697 -0.1784  0.0113
19814TPN    PA130032   0.127   8.582  10.999  0.0267 -0.0567 -0.0163
19814TPN    PA230033   0.066   8.686  10.784 -0.2872  0.2133  0.1883
19814TPN    PA330034   0.245   8.797  10.807 -0.0012 -0.3811  0.4550
19814TPN    PA430035   0.192   9.030  10.740 -0.1210 -0.0058 -0.0373
19815TPN    PA130036   5.716  12.841  13.347 -0.0636 -0.2432  0.3254
19815TPN    PA230037   5.713  12.855  13.111 -0.1768 -0.4819  0.2273
19815TPN    PA330038   5.544  12.979  13.110  0.1923  0.1739  0.1519
19815TPN    PA430039   5.443  12.912  12.897  0.2697  0.2012  0.0613
19816TPN    PA130040   6.857  14.870   0.416  0.0357  0.1196 -0.1589
19816TPN    PA230041   6.949  14.945   0.632 -0.2994  0.1832 -0.0550
19816TPN    PA330042   7.133  15.022   0.504  0.0311  0.0220 -0.3077
19816TPN    PA430043   7.329  14.943   0.632  0.2939  0.0417 -0.1327
19817TPN    PA130044   7.320  15.633   8.805  0.3701 -0.2898  0.2072
19817TPN    PA230045   7.554  15.647   8.885  0.3660  0.2101 -0.0487
19817TPN    PA330046   7.463  15.867   8.913 -0.2794  0.1819  0.0194
19817TPN    PA430047   7.594  16.017   8.778  0.4538 -0.0284 -0.2510
19818TPN    PA130048  10.041  13.793   4.026  0.0789  0.0897  0.1229
19818TPN    PA230049  10.131  13.929   4.201 -0.2626  0.1982  0.2463
19818TPN    PA330050  10.218  13.730   4.277  0.0281 -0.3608  0.0214
19818TPN    PA430051  10.366  13.799   4.488  0.1007 -0.0404 -0.0976
19819TPN    PA130052  14.763   9.284   8.284 -0.0596  0.0391 -0.2743
19819TPN    PA230053  14.827   9.235   8.532 -0.0777  0.3080  0.2545
19819TPN    PA330054  14.880   9.460   8.491 -0.3342 -0.3840 -0.0453
19819TPN    PA430055  15.111   9.477   8.575 -0.0152  0.1351  0.1942
19820TPN    PA130056  12.522  12.554   3.681 -0.2148  0.0244  0.1523
19820TPN    PA230057  12.564  12.762   3.787 -0.2772  0.0190 -0.0913
19820TPN    PA330058  12.559  12.846   3.556 -0.0301  0.0331 -0.0341
19820TPN    PA430059  12.456  13.066   3.605 -0.1548  0.1300  0.3519
19821TPN    PA130060  13.814  13.457   5.722 -0.3629  0.0647  0.2366
19821TPN    PA230061  13.780  13.385   5.970  0.0170 -0.0328  0.2079
19821TPN    PA330062  13.692  13.576   5.949 -0.3651  0.0426 -0.1236
19821TPN    PA430063  13.474  13.554   6.108 -0.1043 -0.1386 -0.1259
19822TPN    PA130064  11.157  10.554   5.816  0.3208 -0.0684 -0.6653
19822TPN    PA230065  11.033  10.450   5.992 -0.0327  0.0175  0.0991
19822TPN    PA330066  11.209  10.419   6.098  0.1815 -0.1072 -0.2713
19822TPN    PA430067  11.195  10.183   6.196 -0.1109 -0.0895  0.0300
19823TPN    PA130068   3.594  11.592   3.998  0.2794 -0.3451  0.0563
19823TPN    PA230069   3.730  11.656   4.212  0.1469 -0.4874  0.3278
19823TPN    PA330070   3.630  11.858   4.166 -0.2161 -0.1155  0.0544
19823TPN    PA430071   3.546  11.941   4.347 -0.0611 -0.0956 -0.0599
19824TPN    PA130072   2.456  10.469   4.774 -0.0706  0.0834  0.1063
19824TPN    PA230073   2.328  10.642   4.826 -0.2172 -0.2695  0.1748
19824TPN    PA330074   2.155  10.521   4.836 -0.4277  0.0273  0.1669
19824TPN    PA430075   2.032  10.587   5.022  0.1217  0.0984 -0.1506
19825TPN    PA130076  12.868   5.373   7.824 -0.1193  0.4126  0.2359
19825TPN    PA230077  12.833   5.416   7.599  0.2554  0.3470 -0.0590
19825TPN    PA330078  12.647   5.275   7.621 -0.5019 -0.2362 -0.2260
19825TPN    PA430079  12.641   5.150   7.426  0.1758  0.1409  0.4339
19826TPN    PA130080   2.341   1.206   9.346  0.3004  0.0033  0.6444
19826TPN    PA230081   2.204   1.200   9.119  0.2127 -0.1899 -0.1594
19826TPN    PA330082   2.380   1.036   9.052  0.3058 -0.0788  0.1112
19826TPN    PA430083   2.249   0.873   8.911 -0.2124  0.1411  0.1482
19827TPN    PA130084   7.237   3.211   8.435 -0.3508  0.0831  0.3544
19827TPN    PA230085   7.136   3.024   8.303 -0.1820  0.0324 -0.1108
19827TPN    PA330086   7.191   3.135   8.138 -0.0137  0.3239  0.0519
19827TPN    PA430087   7.263   2.955   7.962  0.3965  0.1716  0.5214
19828TPN    PA130088   9.735  11.098   0.941  0.0504  0.4007 -0.4242
19828TPN    PA230089   9.640  10.981   1.128  0.0440 -0.1160  0.0156
19828TPN    PA330090   9.601  11.181   1.227  0.1250  0.4110 -0.3297
19828TPN    PA430091   9.635  11.155   1.501  0.1776  0.1011  0.2392
19829TPN    PA130092  13.758   0.024   4.890 -0.0095 -0.2938 -0.3259
19829TPN    PA230093  13.956  -0.097   4.833 -0.0533 -0.2186  0.0573
19829TPN    PA330094  13.970  -0.032   4.640 -0.1302 -0.0357  0.1747
19829TPN    PA430095  14.213  -0.016   4.584 -0.1195  0.1211 -0.1251
19830TPN    PA130096   9.764   1.315  12.287  0.0250 -0.0509  0.0166
19830TPN    PA230097   9.784   1.077  12.325 -0.0591  0.2704  0.0144
19830TPN    PA330098  10.019   1.125  12.281  0.0585 -0.4047  0.3364
19830TPN    PA430099  10.096   0.956  12.136  0.0050 -0.1519 -0.3055
19831TPN    PA130100   4.924  14.438   8.777 -0.2031  0.0921 -0.0302
19831TPN    PA230101   4.889  14.227   8.880 -0.3742 -0.3256 -0.0407
19831TPN    PA330102   5.116  14.241   8.894  0.1933  0.1668  0.0863
19831TPN    PA430103   5.204  14.221   9.142 -0.0315 -0.3339 -0.1673
19832TPN    PA130104   6.307   2.909   5.976 -0.0187 -0.1565 -0.1252
19832TPN    PA230105   6.078   2.897   6.078 -0.4339  0.1129  0.5167
19832TPN    PA330106   6.179   2.792   6.240 -0.2836 -0.0693  0.0547
19832TPN    PA430107   6.006   2.811   6.401 -0.3140 -0.1534 -0.1180
19833TPN    PA130108   4.380  11.254   1.907 -0.3266 -0.3570 -0.3999
19833TPN    PA230109   4.509  11.250   1.707 -0.6251  0.0878  0.2166
19833TPN    PA330110   4.633  11.132   1.865 -0.0495  0.2690  0.1381
19833TPN    PA430111   4.674  10.933   1.728 -0.2420  0.1721 -0.1823
19834TPN    PA130112   1.102  13.342   9.630 -0.0285 -0.0550  0.2809
19834TPN    PA230113   1.028  13.549   9.570  0.3599  0.2050  0.4589
19834TPN    PA330114   1.245  13.540   9.468 -0.1635 -0.0970 -0.0926
19834TPN    PA430115   1.224  13.595   9.244  0.2181 -0.1042  0.1688
19835TPN    PA130116  15.843   7.561   0.830  0.2668  0.2850 -0.1458
19835TPN    PA230117  15.831   7.568   0.611 -0.2953  0.1852  0.5719
19835TPN    PA330118  16.030   7.646   0.546 -0.0363  0.0012  0.0008
19835TPN    PA430119  16.021   7.671   0.297  0.1707 -0.2740  0.3709
19836TPN    PA130120   1.564  11.849   8.509 -0.0430 -0.0241 -0.2209
19836TPN    PA230121   1.501  11.690   8.655  0.3047  0.1234 -0.0184
19836TPN    PA330122   1.288  11.706   8.540 -0.1605 -0.1214  0.2024
19836TPN    PA430123   1.211  11.476   8.512  0.1335  0.0435  0.1750
19837TPN    PA130124   8.829  13.350   6.934 -0.1868 -0.2899 -0.4066
19837TPN    PA230125   8.703  13.201   7.074  0.3657  0.2306  0.1727
19837TPN    PA330126   8.609  13.395   7.131 -0.2129 -0.2441 -0.1657
19837TPN    PA430127   8.375  13.390   7.114  0.1158  0.1429 -0.4200
19838TPN    PA130128  10.621   6.081   9.628 -0.0212  0.0451  0.0118
19838TPN    PA230129  10.498   5.844   9.535 -0.6827  0.2292 -0.1833
19838TPN    PA330130  10.340   5.934   9.600 -0.1357  0.0623 -0.0625
19838TPN    PA430131  10.190   5.792   9.706 -0.3651 -0.0586 -0.2587
19839TPN    PA130132   4.566   3.096   0.011  0.1090  0.3079 -0.0697
19839TPN    PA230133   4.664   3.066   0.214  0.4569 -0.3254 -0.0740
19839TPN    PA330134   4.504   2.909   0.218 -0.3346 -0.3447 -0.2584
19839TPN    PA430135   4.625   2.713   0.297  0.1404  0.2712  0.1353
19840TPN    PA130136  11.427   8.964   3.966  0.2856  0.1240  0.2721
19840TPN    PA230137  11.244   8.889   4.124  0.0563 -0.1504  0.1842
19840TPN    PA330138  11.450   8.893   4.238  0.2804 -0.1803 -0.1316
19840TPN    PA430139  11.484   8.698   4.346 -0.1517  0.1306 -0.0039
19841TPN    PA130140   4.999   8.846  13.290 -0.5562 -0.0009  0.0009
19841TPN    PA230141   5.108   8.979  13.117 -0.2189 -0.3949  0.3554
19841TPN    PA330142   5.294   8.884  13.163  0.5195  0.1770  0.1391
19841TPN    PA430143   5.458   9.055  13.166  0.2222  0.0438  0.0717
19842TPN    PA130144   6.741  10.071   6.046  0.0211 -0.0211  0.1075
19842TPN    PA230145   6.604  10.034   6.214  0.0114 -0.3613 -0.0993
19842TPN    PA330146   6.758  10.051   6.365  0.2586  0.0842 -0.3514
19842TPN    PA430147   6.709   9.846   6.504 -0.0090  0.0340 -0.0127
19843TPN    PA130148  13.598   2.135   9.680 -0.1683  0.0309  0.0866
19843TPN    PA230149  13.376   2.196   9.706 -0.4125 -0.1847 -0.1044
19843TPN    PA330150  13.407   2.372   9.577 -0.1635  0.2739  0.2425
19843TPN    PA430151  13.333   2.552   9.669  0.5438  0.0786  0.0503
19844TPN    PA130152  14.123   1.347  11.762 -0.3086 -0.3300 -0.0408
19844TPN    PA230153  14.116   1.337  12.010  0.2609 -0.1398  0.0607
19844TPN    PA330154  13.899   1.386  11.983 -0.0785  0.0475 -0.3207
19844TPN    PA430155  13.826   1.241  12.197 -0.2493 -0.3552  0.0100
19845TPN    PA130156   0.376  13.585  10.876 -0.0328  0.2215  0.1800
19845TPN    PA230157   0.516  13.581  11.049  0.2003  0.0444 -0.1632
19845TPN    PA330158   0.356  13.550  11.209  0.1402 -0.1709  0.5529
19845TPN    PA430159   0.425  13.665  11.420  0.3753 -0.2176  0.4473
19846TPN    PA130160   7.091   3.896   4.138  0.1113 -0.2066  0.0187
19846TPN    PA230161   7.074   3.974   4.346  0.2633  0.3478 -0.5958
19846TPN    PA330162   7.049   3.772   4.408  0.1326 -0.1770 -0.1261
19846TPN    PA430163   6.888   3.775   4.610  0.0131  0.0593  0.1547
19847TPN    PA130164  11.451   6.563   3.421 -0.0632 -0.0709  0.0028
19847TPN    PA230165  11.214   6.598   3.496  0.0291  0.5301 -0.0866
19847TPN    PA330166  11.268   6.805   3.486 -0.5628  0.1033 -0.0443
19847TPN    PA430167  11.080   6.917   3.403  0.5130 -0.2208 -0.4796
19848TPN    PA130168  12.670   7.934  11.235  0.0199 -0.1660  0.1298
19848TPN    PA230169  12.736   7.989  11.460  0.2977  0.1783 -0.3404
19848TPN    PA330170  12.519   8.048  11.464 -0.0502  0.0392 -0.2268
19848TPN    PA430171  12.531   8.286  11.582  0.0112  0.1608  0.1944
19849TPN    PA130172  11.819  15.233  10.424  0.2217 -0.1954  0.0192
19849TPN    PA230173  11.576  15.334  10.399  0.1688  0.3273 -0.0072
19849TPN    PA330174  11.519  15.131  10.362  0.0033  0.0046 -0.2402
19849TPN    PA430175  11.339  15.080  10.515 -0.0447  0.0781  0.1796
19850TPN    PA130176   1.358   7.273   4.037  0.2048  0.0063  0.0228
19850TPN    PA230177   1.405   7.463   4.136  0.5564 -0.2111  0.0294
19850TPN    PA330178   1.197   7.523   4.149  0.3126 -0.1686  0.1240
19850TPN    PA430179   1.191   7.728   4.232  0.0269  0.4557  0.0975
19851TPN    PA130180   1.206   4.840  13.513 -0.0312  0.2193  0.0185
19851TPN    PA230181   1.057   4.789  13.712 -0.0242  0.2909 -0.5695
19851TPN    PA330182   0.891   4.866  13.595  0.2135  0.2748  0.2145
19851TPN    PA430183   0.777   5.036  13.711  0.1205  0.1184 -0.2652
19852TPN    PA130184  14.322   7.253  12.492  0.0297  0.3157  0.2787
19852TPN    PA230185  14.532   7.354  12.455 -0.2821 -0.1159 -0.0215
19852TPN    PA330186  14.445   7.391  12.244 -0.1060 -0.2048  0.0953
19852TPN    PA430187  14.476   7.642  12.225 -0.1061 -0.0240  0.4926
19853TPN    PA130188  14.087  14.677  12.641  0.2407 -0.2902 -0.3316
19853TPN    PA230189  14.008  14.876  12.523 -0.1129 -0.0276  0.3155
19853TPN    PA330190  14.226  14.950  12.488 -0.1445  0.4158 -0.3115
19853TPN    PA430191  14.208  15.189  12.424 -0.1782 -0.5664  0.2779
19854TPN    PA130192   7.670   2.480   1.667  0.1554  0.2241 -0.1217
19854TPN    PA230193   7.742   2.687   1.779  0.2796 -0.0883 -0.2515
19854TPN    PA330194   7.591   2.644   1.906  0.0998 -0.0015  0.1601
19854TPN    PA430195   7.449   2.844   1.940  0.0593  0.0910  0.0273
19855TPN    PA130196   7.092   9.359   7.183  0.0059  0.0470 -0.1732
19855TPN    PA230197   6.976   9.158   7.153  0.2192 -0.1118 -0.0678
19855TPN    PA330198   7.107   9.025   7.167 -0.2271  0.3391 -0.1099
19855TPN    PA430199   7.031   8.831   7.330 -0.4222 -0.2778  0.3168
19856OST    PA130200  12.304  10.281  12.922 -0.0798 -0.2577  0.1051
19856OST    PA230201  11.981  10.381  12.990  0.1989  0.2674  0.1806
19856OST    PA330202  11.907  10.217  12.746  0.3394 -0.0442 -0.3389
19856OST    PA430203  11.806  10.409  13.057 -0.1954  0.3423  0.3721
19856OST    PA530204  11.873  10.588  13.301 -0.1378 -0.1538  0.0830
19856OST    PA630205  12.125  10.572  13.263 -0.1877 -0.0047 -0.2563
19857OST    PA130206  10.789   3.208  12.420 -0.2023 -0.1186  0.3757
19857OST    PA230207  10.665   3.512  12.573 -0.1824 -0.0722 -0.0317
19857OST    PA330208  10.812   3.613  12.328 -0.1413 -0.0304  0.0721
19857OST    PA430209  10.524   3.621  12.554  0.1122 -0.2801  0.0913
19857OST    PA530210  10.291   3.448  12.707 -0.1384 -0.1933  0.3122
19857OST    PA630211  10.446   3.276  12.746  0.0965 -0.0402 -0.2716
19858OST    PA130212  10.964  13.213   4.274 -0.0819 -0.0844 -0.0274
19858OST    PA230213  11.115  13.433   4.034 -0.4642 -0.3436  0.0222
19858OST    PA330214  10.911  13.315   3.841 -0.1749  0.2961 -0.0590
19858OST    PA430215  11.261  13.445   3.892  0.3939 -0.2552 -0.1477
19858OST    PA530216  11.487  13.520   4.102  0.1282  0.2308 -0.6780
19858OST    PA630217  11.355  13.491   4.290 -0.0691 -0.2917 -0.1607
19859OST    PA130218  12.500   4.352   0.997 -0.0152  0.1582 -0.0182
19859OST    PA230219  12.754   4.080   0.932 -0.1639  0.1096  0.1258
19859OST    PA330220  12.739   4.045   1.235 -0.0841 -0.3936 -0.3009
19859OST    PA430221  12.940   4.027   0.923 -0.1213 -0.0590 -0.0372
19859OST    PA530222  12.963   3.981   0.615 -0.0893 -0.1867 -0.0436
19859OST    PA630223  12.739   4.032   0.590 -0.0543  0.2092 -0.2809
19860OST    PA130224   0.482   6.267   9.814 -0.1080 -0.2730  0.2147
19860OST    PA230225   0.239   6.469   9.964 -0.3926 -0.1111  0.1490
19860OST    PA330226   0.423   6.617  10.145  0.3332  0.0461 -0.0287
19860OST    PA430227   0.029   6.606   9.983 -0.1209 -0.0481 -0.2122
19860OST    PA530228  -0.137   6.339   9.952 -0.2932  0.3868 -0.2241
19860OST    PA630229   0.020   6.197   9.939  0.1671 -0.0434  0.0135
19861OST    PA130230  14.374   1.961   9.869  0.2082 -0.3456  0.0927
19861OST    PA230231  14.262   2.202  10.112  0.2127 -0.0999 -0.2448
19861OST    PA330232  14.516   2.362  10.072 -0.1178 -0.2309  0.1029
19861OST    PA430233  14.158   2.354  10.218 -0.0333 -0.1034  0.1276
19861OST    PA530234  13.865   2.187  10.160  0.0209 -0.0828  0.5100
19861OST    PA630235  13.946   2.014  10.049  0.2384  0.0698  0.1302
19862OST    PA130236   3.933   5.540  10.482  0.0435  0.0889 -0.0374
19862OST    PA230237   4.104   5.778  10.672  0.0190 -0.2115 -0.4460
19862OST    PA330238   3.861   5.969  10.628 -0.0194  0.2486  0.1846
19862OST    PA430239   4.147   5.848  10.818  0.0435  0.4630 -0.0116
19862OST    PA530240   4.273   5.609  10.971 -0.3596  0.0643  0.1331
19862OST    PA630241   4.205   5.453  10.812 -0.3532 -0.1996  0.0290
19863OST    PA130242  11.736   6.313   9.389  0.3789  0.3333  0.0665
19863OST    PA230243  11.909   6.085   9.213 -0.0755 -0.2082  0.2606
19863OST    PA330244  11.893   5.863   9.396  0.4721  0.3782 -0.2782
19863OST    PA430245  12.030   5.972   9.084  0.1797  0.0286  0.0377
19863OST    PA530246  12.277   6.178   9.048  0.1987 -0.1091  0.5010
19863OST    PA630247  12.134   6.344   9.154 -0.2354  0.1454 -0.0756
19864OST    PA130248   0.420   1.006   9.795  0.1961  0.1177 -0.1647
19864OST    PA230249   0.148   0.802   9.867  0.7384 -0.2042 -0.0619
19864OST    PA330250  -0.029   0.932  10.056  0.0166  0.1933  0.0732
19864OST    PA430251  -0.003   0.719   9.778 -0.2019 -0.1408 -0.0532
19864OST    PA530252   0.174   0.461   9.803  0.2337  0.1793  0.1112
19864OST    PA630253   0.360   0.508   9.908 -0.0458  0.0869 -0.2354
19865OST    PA130254   3.669   5.282   3.997 -0.5115 -0.0438 -0.1121
19865OST    PA230255   3.971   5.483   3.910  0.0706  0.2844 -0.3633
19865OST    PA330256   4.050   5.285   3.744 -0.0896  0.3676  0.7395
19865OST    PA430257   4.029   5.608   3.817 -0.0017 -0.0513  0.1969
19865OST    PA530258   3.922   5.828   4.045  0.4049 -0.3697 -0.0478
19865OST    PA630259   3.843   5.674   4.190  0.2502 -0.1090  0.2631
19866OST    PA130260   8.198   7.797   4.471  0.0606  0.0219  0.0826
19866OST    PA230261   7.935   7.967   4.284 -0.0496  0.2097  0.0781
19866OST    PA330262   7.756   7.750   4.305 -0.3698 -0.0083  0.4386
19866OST    PA430263   7.794   8.130   4.278 -0.0638  0.1770 -0.3013
19866OST    PA530264   7.961   8.363   4.116  0.0268 -0.0310  0.0523
19866OST    PA630265   8.166   8.198   4.113  0.2865  0.0410 -0.2281
19867OST    PA130266  11.554   8.360   2.721  0.2121 -0.1614 -0.2938
19867OST    PA230267  11.831   8.534   2.590 -0.0749 -0.3538  0.2718
19867OST    PA330268  12.026   8.746   2.715  0.2246  0.0471 -0.1524
19867OST    PA430269  11.840   8.621   2.381 -0.0364 -0.3418  0.1298
19867OST    PA530270  11.869   8.332   2.301  0.0061  0.2928 -0.0863
19867OST    PA630271  11.888   8.207   2.476 -0.1145 -0.3739 -0.2086
19868OST    PA130272   4.357   2.870  11.773 -0.0721 -0.1620  0.0463
19868OST    PA230273   4.480   2.596  11.568 -0.1109 -0.3388  0.0376
19868OST    PA330274   4.687   2.505  11.756 -0.0783 -0.2185  0.0654
19868OST    PA430275   4.574   2.493  11.389  0.2909 -0.3231  0.1853
19868OST    PA530276   4.234   2.457  11.336 -0.1927 -0.0305  0.2800
19868OST    PA630277   4.133   2.566  11.492  0.0495 -0.0113 -0.3512
19869OST    PA130278   7.830  13.544  10.210  0.0600  0.0727  0.0645
19869OST    PA230279   7.691  13.598   9.855 -0.1180  0.1039 -0.0125
19869OST    PA330280   7.513  13.387  10.010  0.2712  0.4359  0.4299
19869OST    PA430281   7.631  13.561   9.665  0.0830  0.5724 -0.0082
19869OST    PA530282   7.935  13.605   9.557  0.0874  0.0748 -0.1499
19869OST    PA630283   8.046  13.691   9.765  0.0710  0.3005  0.1452
19870OST    PA130284   6.134  12.864   1.296 -0.0559 -0.0714 -0.1632
19870OST    PA230285   6.284  13.187   1.262 -0.4569 -0.0164  0.2277
19870OST    PA330286   6.332  13.236   1.543  0.3959  0.6658 -0.0240
19870OST    PA430287   6.312  13.365   1.224 -0.2790 -0.1655 -0.1178
19870OST    PA530288   6.265  13.332   0.878 -0.0956  0.0281  0.0936
19870OST    PA630289   6.337  13.074   0.920 -0.1414 -0.0471  0.1421
19871OST    PA130290   8.864   1.515   9.509  0.2625  0.1463  0.0988
19871OST    PA230291   8.864   1.704   9.824  0.0617  0.1181  0.2243
19871OST    PA330292   8.732   1.495   9.958  0.0389  0.4139 -0.3118
19871OST    PA430293   8.904   1.828   9.984  0.2517  0.1075 -0.5369
19871OST    PA530294   9.037   2.044   9.808  0.4907  0.5239  0.3798
19871OST    PA630295   9.016   1.928   9.611 -0.3395  0.2400  0.1109
19872OST    PA130296   1.644   1.212   9.207  0.2413 -0.1212 -0.0375
19872OST    PA230297   1.749   1.144   8.866  0.0895  0.0772  0.2626
19872OST    PA330298   1.661   0.858   8.981  0.5493 -0.2125  0.2933
19872OST    PA430299   1.896   1.089   8.736  0.1633  0.0963 -0.0744
19872OST    PA530300   2.074   1.326   8.760 -0.2117  0.4004  0.6721
19872OST    PA630301   1.963   1.422   8.906 -0.1412  0.1753  0.1076
19873OST    PA130302   9.465   3.852  10.703 -0.1852  0.1470 -0.0811
19873OST    PA230303   9.532   3.595  10.928  0.2659  0.0304 -0.4117
19873OST    PA330304   9.229   3.514  10.951 -0.1153 -0.0872 -0.0645
19873OST    PA430305   9.594   3.419  10.921  0.5557 -0.1316  0.0150
19873OST    PA530306   9.885   3.522  10.930 -0.1458  0.2131  0.6123
19873OST    PA630307   9.845   3.757  11.015  0.0108  0.1652  0.3840
19874OST    PA130308  15.647   9.440  10.736 -0.2900  0.1083  0.2032
19874OST    PA230309  15.299   9.394  10.678  0.1716  0.0797  0.1361
19874OST    PA330310  15.361   9.503  10.411  0.2433  0.0722  0.0433
19874OST    PA430311  15.093   9.480  10.670  0.0055 -0.5128  0.0801
19874OST    PA530312  15.006   9.321  10.937  0.1612 -0.0859  0.3871
19874OST    PA630313  15.206   9.202  10.993 -0.0531 -0.0208  0.1365
19875OST    PA130314   3.629   2.766   3.211 -0.0432 -0.1676  0.1208
19875OST    PA230315   3.663   2.998   3.491  0.3671  0.2609 -0.1076
19875OST    PA330316   3.373   3.016   3.396  0.1845  0.2630  0.0682
19875OST    PA430317   3.618   3.019   3.668 -0.3987 -0.0863 -0.2303
19875OST    PA530318   3.802   2.807   3.778 -0.1215 -0.0863 -0.1039
19875OST    PA630319   3.895   2.725   3.593  0.3321  0.0869  0.0048
19876OST    PA130320  10.193   1.812   9.476 -0.1002  0.4956  0.2612
19876OST    PA230321  10.269   1.788   9.801 -0.1789 -0.0458  0.4594
19876OST    PA330322  10.437   2.043   9.730  0.4448  0.0588  0.1978
19876OST    PA430323  10.242   1.824   9.987  0.0822 -0.2770  0.1528
19876OST    PA530324  10.014   1.602  10.058  0.0070 -0.1286  0.1985
19876OST    PA630325  10.044   1.531   9.835 -0.3806  0.3606  0.1451
19877OST    PA130326  11.762  13.249   4.120  0.1487  0.0816  0.1227
19877OST    PA230327  11.701  13.159   4.456  0.3687  0.0036 -0.0380
19877OST    PA330328  11.409  13.155   4.420 -0.0390 -0.2361  0.1286
19877OST    PA430329  11.692  13.180   4.665  0.1723  0.1382  0.2049
19877OST    PA530330  12.009  13.172   4.657 -0.2716  0.2864  0.1881
19877OST    PA630331  12.032  13.121   4.422 -0.2068  0.0632  0.0139
19878OST    PA130332  12.508   1.084   1.847  0.2615  0.2142 -0.2570
19878OST    PA230333  12.171   1.183   1.946  0.0020 -0.2775  0.0015
19878OST    PA330334  12.164   1.304   1.685  0.1282 -0.2226  0.5493
19878OST    PA430335  12.018   1.323   2.017 -0.3657 -0.0957  0.2367
19878OST    PA530336  12.021   1.136   2.273  0.0967 -0.4642  0.2481
19878OST    PA630337  12.192   0.979   2.227 -0.2238  0.1080  0.0122
19879OST    PA130338  15.865  15.044   1.151  0.0310  0.2211 -0.1570
19879OST    PA230339  15.916  15.141   1.487 -0.1523  0.0966 -0.2576
19879OST    PA330340  15.782  15.387   1.396 -0.1457  0.5155 -0.3248
19879OST    PA430341  16.023  15.215   1.639 -0.1921 -0.1306 -0.1207
19879OST    PA530342  16.013  14.923   1.790 -0.6068  0.0672 -0.4274
19879OST    PA630343  15.971  14.801   1.574 -0.3453 -0.1354  0.1998
19880OST    PA130344  13.865  10.100  12.707  0.0411 -0.2880  0.0189
19880OST    PA230345  14.036  10.209  12.398  0.0498 -0.1684  0.0063
19880OST    PA330346  13.926   9.979  12.271 -0.4714  0.0832 -0.4497
19880OST    PA430347  14.079  10.329  12.221 -0.0484  0.0598 -0.2482
19880OST    PA530348  14.211  10.547  12.387 -0.2446 -0.0909 -0.2713
19880OST    PA630349  14.238  10.443  12.564  0.2027 -0.4974  0.1578
19881OST    PA130350  12.787  13.719   9.467 -0.0388 -0.2820 -0.1024
19881OST    PA230351  12.871  14.026   9.661 -0.1751 -0.1408  0.0194
19881OST    PA330352  12.789  14.234   9.422 -0.2411 -0.1097  0.1353
19881OST    PA430353  13.015  14.125   9.717 -0.2745 -0.1597 -0.0470
19881OST    PA530354  13.047  13.892   9.934  0.1940 -0.2388  0.1206
19881OST    PA630355  12.819  13.843   9.934  0.0653  0.0894  0.2861
19882OST    PA130356   3.631  14.729   9.219  0.3897 -0.0759  0.0788
19882OST    PA230357   3.789  14.419   9.232 -0.0355 -0.0326 -0.4140
19882OST    PA330358   4.038  14.468   9.346 -0.0086  0.1168 -0.0645
19882OST    PA430359   3.864  14.270   9.099  0.0624 -0.0323 -0.0817
19882OST    PA530360   3.619  14.109   9.081 -0.0033 -0.2681 -0.2539
19882OST    PA630361   3.455  14.296   9.184  0.4063  0.1286 -0.0551
19883OST    PA130362   4.986  10.567  11.746 -0.0541 -0.0914  0.1247
19883OST    PA230363   4.929  10.798  11.996 -0.3148  0.0429 -0.0422
19883OST    PA330364   5.142  10.974  11.845  0.2661  0.0138  0.0563
19883OST    PA430365   4.798  10.931  12.044 -0.1915 -0.0345  0.4360
19883OST    PA530366   4.614  10.689  12.201 -0.1916 -0.0390 -0.1204
19883OST    PA630367   4.741  10.494  12.119  0.1189 -0.2071  0.0677
19884OST    PA130368   7.628   0.430  10.977  0.2213 -0.0701  0.3218
19884OST    PA230369   7.727   0.262  10.669 -0.0126 -0.0742  0.4731
19884OST    PA330370   7.832   0.100  10.897  0.0251  0.0526 -0.0174
19884OST    PA430371   7.846   0.169  10.511  0.3563  0.4526  0.0622
19884OST    PA530372   7.591   0.139  10.302  0.5689 -0.1397 -0.2065
19884OST    PA630373   7.417   0.240  10.445 -0.4286 -0.2343 -0.0370
19885OST    PA130374   0.772  11.608   8.532 -0.0349  0.0956 -0.4235
19885OST    PA230375   0.889  11.674   8.858 -0.2301  0.3828 -0.2223
19885OST    PA330376   0.661  11.476   8.900 -0.3175  0.2758 -0.0527
19885OST    PA430377   0.830  11.775   8.998 -0.2271  0.1083  0.4689
19885OST    PA530378   1.023  12.033   8.903 -0.1492 -0.3015 -0.2574
19885OST    PA630379   1.089  11.977   8.729 -0.0119 -0.3158  0.1222
19886OST    PA130380   8.557  14.455   0.499  0.2641  0.1922 -0.0562
19886OST    PA230381   8.195  14.495   0.526  0.0268 -0.2985  0.2254
19886OST    PA330382   8.143  14.793   0.601  0.0297 -0.1583 -0.2686
19886OST    PA430383   8.028  14.426   0.607  0.3524 -0.0848 -0.3324
19886OST    PA530384   7.952  14.179   0.416 -0.0139 -0.0565  0.0449
19886OST    PA630385   8.161  14.250   0.285  0.2597  0.0916  0.2872
19887OST    PA130386   3.386  12.858   8.955  0.0617  0.0418  0.0229
19887OST    PA230387   3.165  12.956   9.227 -0.1529  0.1862  0.2542
19887OST    PA330388   3.350  13.182   9.311  0.1885 -0.0073  0.3333
19887OST    PA430389   2.987  13.086   9.260  0.1380  0.2883 -0.0979
19887OST    PA530390   2.818  12.822   9.148 -0.0554 -0.2156  0.0587
19887OST    PA630391   2.963  12.673   9.102  0.1394 -0.0586  0.0455
19888OST    PA130392  12.739   9.336   8.881 -0.0119 -0.0940  0.1071
19888OST    PA230393  12.636   9.566   8.624 -0.4211  0.1945  0.1978
19888OST    PA330394  12.354   9.520   8.663  0.1282  0.1489  0.2191
19888OST    PA430395  12.632   9.726   8.603 -0.1674  0.3333 -0.0872
19888OST    PA530396  12.933   9.777   8.549 -0.2940 -0.1580  0.0094
19888OST    PA630397  12.965   9.539   8.526 -0.1996 -0.1996 -0.0659
19889OST    PA130398   7.361   0.526  10.116 -0.1089 -0.2172 -0.0029
19889OST    PA230399   7.494   0.794   9.931  0.4713 -0.2336  0.0563
19889OST    PA330400   7.655   0.827  10.188  0.0214  0.0269  0.1211
19889OST    PA430401   7.649   0.823   9.808 -0.0260 -0.0803  0.0005
19889OST    PA530402   7.434   0.800   9.568 -0.1450  0.4901  0.4728
19889OST    PA630403   7.237   0.752   9.689 -0.2645  0.2723  0.2998
19890OST    PA130404   2.186  10.036   9.456  0.0368 -0.3284  0.0998
19890OST    PA230405   2.296  10.176   9.148  0.2236 -0.0156 -0.1841
19890OST    PA330406   2.260  10.436   9.297 -0.1941 -0.0506  0.1964
19890OST    PA430407   2.320  10.267   8.981  0.2364  0.4266  0.0642
19890OST    PA530408   2.539  10.071   8.889  0.1654  0.0666  0.4417
19890OST    PA630409   2.458   9.886   9.009 -0.7054  0.1723  0.0054
19891OST    PA130410   5.020   9.681   4.025  0.0194 -0.2607  0.1476
19891OST    PA230411   4.874   9.443   3.793  0.0939  0.0092 -0.2282
19891OST    PA330412   4.750   9.395   4.070 -0.2720 -0.0887  0.7404
19891OST    PA430413   4.720   9.352   3.676  0.0549 -0.2346  0.1829
19891OST    PA530414   4.795   9.539   3.426 -0.1906 -0.2526 -0.2114
19891OST    PA630415   4.954   9.698   3.567  0.1510  0.0607 -0.0875
19892OST    PA130416   6.509   1.238  10.742  0.2759 -0.3363 -0.1594
19892OST    PA230417   6.599   1.547  10.578 -0.0801  0.4700 -0.1593
19892OST    PA330418   6.654   1.352  10.357  0.2910  0.3592  0.3013
19892OST    PA430419   6.712   1.722  10.489  0.1819 -0.1490  0.1375
19892OST    PA530420   6.646   1.926  10.743  0.4475  0.2473 -0.0149
19892OST    PA630421   6.499   1.766  10.821  0.0593 -0.0670 -0.0201
19893OST    PA130422   0.712   5.769   1.362  0.1227 -0.0584 -0.0907
19893OST    PA230423   0.683   5.425   1.297 -0.3293  0.1559  0.2830
19893OST    PA330424   0.771   5.493   1.007  0.1682  0.2764 -0.1250
19893OST    PA430425   0.658   5.220   1.263 -0.0569 -0.0310 -0.3422
19893OST    PA530426   0.562   5.189   1.571  0.0773  0.0318 -0.1880
19893OST    PA630427   0.533   5.406   1.615  0.3349 -0.1308  0.1705
19894OST    PA130428   7.936   0.627  11.843 -0.2150 -0.2957  0.0089
19894OST    PA230429   7.902   0.570  11.506  0.1477 -0.1114  0.0204
19894OST    PA330430   8.176   0.690  11.488  0.3998  0.1102  0.0697
19894OST    PA430431   7.825   0.675  11.329  0.1131  0.2909 -0.2028
19894OST    PA530432   7.551   0.475  11.386  0.0026 -0.0584 -0.2256
19894OST    PA630433   7.626   0.402  11.592  0.4130  0.1241  0.3403
19895OST    PA130434   2.741  11.355  11.083  0.3352  0.1558 -0.0375
19895OST    PA230435   3.017  11.328  10.868  0.0606  0.2293 -0.1243
19895OST    PA330436   3.021  11.049  11.011 -0.1816 -0.0452 -0.1860
19895OST    PA430437   3.196  11.377  10.893 -0.1847 -0.2129 -0.0750
19895OST    PA530438   3.088  11.689  10.809  0.0324  0.1248 -0.3784
19895OST    PA630439   2.851  11.604  10.737  0.2017 -0.0509 -0.4960
19896OST    PA130440  15.179  15.287   1.837 -0.1771 -0.1089 -0.1299
19896OST    PA230441  15.387  15.515   2.014  0.1171  0.1670 -0.0543
19896OST    PA330442  15.195  15.726   1.950 -0.0403  0.4319  0.0073
19896OST    PA430443  15.544  15.632   2.012 -0.1560 -0.3642  0.0705
19896OST    PA530444  15.767  15.475   1.867 -0.0910  0.3872  0.0770
19896OST    PA630445  15.619  15.299   1.833  0.2858  0.0098  0.3475
19897OST    PA130446  12.227   1.225   3.225 -0.2689  0.0898  0.0086
19897OST    PA230447  12.421   1.031   3.432 -0.0493  0.1549 -0.1664
19897OST    PA330448  12.650   1.004   3.259 -0.2303  0.3392  0.2209
19897OST    PA430449  12.446   0.817   3.511 -0.4425 -0.4207  0.3085
19897OST    PA530450  12.256   0.857   3.755  0.1512  0.0924 -0.0095
19897OST    PA630451  12.156   1.066   3.701 -0.1740 -0.1137  0.0703
19898OST    PA130452   4.392   6.946  11.526 -0.1441  0.2423 -0.3880
19898OST    PA230453   4.671   6.722  11.665  0.1184 -0.0105 -0.0684
19898OST    PA330454   4.484   6.615  11.872  0.4021  0.1196  0.1899
19898OST    PA430455   4.762   6.569  11.635  0.4153 -0.0150  0.1587
19898OST    PA530456   5.003   6.723  11.522 -0.4077 -0.4659  0.1202
19898OST    PA630457   4.912   6.961  11.549  0.1923  0.1577  0.1783
19899OST    PA130458   9.530   1.746   2.400 -0.0104  0.1133 -0.0724
19899OST    PA230459   9.694   1.827   2.722 -0.1440  0.1279  0.4471
19899OST    PA330460   9.934   1.811   2.527  0.1981  0.3595  0.0000
19899OST    PA430461   9.821   1.854   2.891  0.0477  0.3836 -0.0843
19899OST    PA530462   9.529   1.967   3.057 -0.2247  0.1723  0.0188
19899OST    PA630463   9.398   1.955   2.874  0.4052 -0.1293  0.0919
19900OST    PA130464  14.209   9.375  12.165 -0.0846  0.1109  0.0767
19900OST    PA230465  14.321   9.408  11.821  0.0582  0.0111 -0.0149
19900OST    PA330466  14.063   9.405  11.668 -0.5825 -0.0929 -0.2671
19900OST    PA430467  14.413   9.294  11.711  0.1041 -0.0997  0.0768
19900OST    PA530468  14.723   9.372  11.795 -0.3919  0.1708 -0.2006
19900OST    PA630469  14.620   9.518  11.943  0.1492  0.3538 -0.0341
19901OST    PA130470   1.566  11.814   4.026 -0.0618  0.1312 -0.0117
19901OST    PA230471   1.353  11.533   3.943  0.0323  0.0847 -0.1729
19901OST    PA330472   1.524  11.358   4.126 -0.1595  0.3508 -0.5368
19901OST    PA430473   1.271  11.377   3.856  0.0480  0.1744 -0.0352
19901OST    PA530474   1.046  11.521   3.671  0.2271  0.1784  0.0763
19901OST    PA630475   1.114  11.727   3.788  0.2488 -0.0169  0.0048
19902OST    PA130476   2.667  11.956  11.547  0.1706  0.1076  0.1428
19902OST    PA230477   2.923  11.778  11.680  0.1429 -0.0791 -0.0928
19902OST    PA330478   3.057  12.017  11.770 -0.2537  0.2101 -0.2845
19902OST    PA430479   3.064  11.664  11.730 -0.2058 -0.0764  0.5627
19902OST    PA530480   2.939  11.391  11.702 -0.1184  0.4165  0.0027
19902OST    PA630481   2.771  11.450  11.576 -0.0079 -0.2783  0.2264
19903OST    PA130482   7.792   7.119   4.566 -0.0657 -0.0581  0.0757
19903OST    PA230483   7.962   7.192   4.285 -0.0699  0.1718 -0.0917
19903OST    PA330484   7.990   7.485   4.325  0.2487  0.3857  0.0830
19903OST    PA430485   8.033   7.171   4.107  0.5459  0.2146 -0.2304
19903OST    PA530486   8.162   6.868   4.154  0.0091 -0.2040  0.2410
19903OST    PA630487   8.064   6.828   4.357 -0.2393 -0.0609  0.0051
19904OST    PA130488   2.692  14.549  10.911 -0.1979  0.1286 -0.0858
19904OST    PA230489   2.850  14.357  11.160 -0.1958 -0.2044 -0.1955
19904OST    PA330490   2.618  14.388  11.312 -0.0736  0.3180 -0.0763
19904OST    PA430491   2.919  14.190  11.269 -0.2733 -0.3174  0.2917
19904OST    PA530492   3.200  14.181  11.131  0.0211 -0.0737 -0.2871
19904OST    PA630493   3.172  14.376  10.993 -0.2346 -0.0065 -0.0149
19905OST    PA130494   4.602   2.888   5.093 -0.2729 -0.3838 -0.2074
19905OST    PA230495   4.577   2.635   4.836 -0.1786  0.2819  0.0521
19905OST    PA330496   4.555   2.421   5.049  0.0893  0.4944 -0.0950
19905OST    PA430497   4.691   2.519   4.674 -0.1765  0.2690 -0.1103
19905OST    PA530498   4.756   2.783   4.500  0.3166  0.1463  0.1623
19905OST    PA630499   4.611   2.913   4.610  0.0242 -0.0864 -0.0763
19906OST    PA130500  12.703   5.286   3.740 -0.0068  0.2740  0.1173
19906OST    PA230501  12.507   5.440   3.923  0.7025  0.0202 -0.0623
19906OST    PA330502  12.592   5.713   3.877  0.2015 -0.3623  0.0923
19906OST    PA430503  12.510   5.462   4.123  0.2281  0.1277 -0.1402
19906OST    PA530504  12.400   5.175   4.186  0.6536  0.0657  0.4831
19906OST    PA630505  12.341   5.136   3.948  0.2381 -0.0011  0.0345
19907OST    PA130506  14.538   3.642   4.641  0.0139 -0.0590  0.2915
19907OST    PA230507  14.350   3.314   4.585 -0.2107 -0.1300  0.2756
19907OST    PA330508  14.197   3.271   4.826 -0.0181  0.1799  0.2086
19907OST    PA430509  14.389   3.129   4.542  0.2476 -0.0040  0.0635
19907OST    PA530510  14.517   3.164   4.247 -0.4959  0.0926  0.3959
19907OST    PA630511  14.442   3.383   4.226 -0.0380  0.0824 -0.1910
19908OST    PA130512   9.413   7.032   2.414  0.1368  0.0211 -0.0302
19908OST    PA230513   9.539   7.246   2.687 -0.4368  0.0390  0.0377
19908OST    PA330514   9.278   7.334   2.714  0.6223  0.0341 -0.0171
19908OST    PA430515   9.557   7.193   2.876  0.0447 -0.0020 -0.1963
19908OST    PA530516   9.821   7.050   2.899  0.3537  0.1961  0.2663
19908OST    PA630517   9.829   7.040   2.643 -0.1727  0.2188  0.0349
19909OST    PA130518   8.659  14.931  10.473  0.1207  0.3975 -0.0889
19909OST    PA230519   8.986  14.967  10.443 -0.0701  0.0692  0.1161
19909OST    PA330520   8.988  14.795  10.204  0.4093  0.0911 -0.4201
19909OST    PA430521   9.185  15.050  10.406  0.3120 -0.0180  0.1062
19909OST    PA530522   9.188  15.149  10.697  0.3834  0.3744 -0.1510
19909OST    PA630523   9.061  14.977  10.811 -0.1331  0.1502  0.0498
19910OST    PA130524  13.572  13.850   9.393  0.1626  0.1376  0.1108
19910OST    PA230525  13.418  13.659   9.606  0.3613 -0.1375  0.0317
19910OST    PA330526  13.209  13.725   9.425 -0.2649  0.0545  0.2714
19910OST    PA430527  13.307  13.648   9.768  0.1618 -0.1785  0.1843
19910OST    PA530528  13.566  13.515   9.914  0.0163 -0.1795 -0.0569
19910OST    PA630529  13.722  13.492   9.711  0.0462 -0.0562  0.1383
19911OST    PA130530   3.355   0.972  11.877 -0.0839  0.0943 -0.4222
19911OST    PA230531   3.212   0.895  11.596  0.0029  0.0408  0.4123
19911OST    PA330532   3.398   0.841  11.375 -0.1376  0.1599 -0.6581
19911OST    PA430533   3.042   0.950  11.478 -0.2880 -0.4936 -0.1593
19911OST    PA530534   2.833   0.830  11.691  0.6069  0.4167  0.0313
19911OST    PA630535   2.993   0.751  11.822  0.2599  0.3846  0.2306
19912OST    PA130536  13.445   4.682   2.259 -0.1203 -0.0700 -0.0043
19912OST    PA230537  13.356   5.009   2.202  0.3304 -0.1739  0.0166
19912OST    PA330538  13.367   5.039   2.501  0.2195  0.4258  0.2648
19912OST    PA430539  13.427   5.211   2.162 -0.0132  0.2908 -0.1222
19912OST    PA530540  13.491   5.158   1.808  0.1464 -0.1051 -0.2226
19912OST    PA630541  13.417   4.944   1.867  0.1135 -0.1609  0.0522
19913OST    PA130542   5.460  11.919   4.129 -0.0163  0.3289  0.2068
19913OST    PA230543   5.514  11.692   3.869 -0.1156  0.0456  0.6285
19913OST    PA330544   5.717  11.919   3.770  0.1230 -0.0460 -0.4442
19913OST    PA430545   5.500  11.610   3.679  0.2663 -0.2935  0.3484
19913OST    PA530546   5.217  11.487   3.733  0.0753  0.1791  0.0718
19913OST    PA630547   5.202  11.522   3.941  0.1369 -0.0344 -0.0544
19914OST    PA130548  14.132   2.060   3.282 -0.0202  0.1943 -0.0002
19914OST    PA230549  13.826   2.109   3.428  0.3290  0.3346  0.0061
19914OST    PA330550  13.904   2.342   3.513 -0.2146 -0.0334  0.3458
19914OST    PA430551  13.621   2.142   3.435  0.2305 -0.1215 -0.0132
19914OST    PA530552  13.553   1.830   3.472  0.0077 -0.3463  0.5197
19914OST    PA630553  13.774   1.754   3.408  0.1986 -0.2051 -0.1742
19915OST    PA130554  12.504   7.077  12.778 -0.2458  0.0227  0.0493
19915OST    PA230555  12.686   6.979  12.509  0.4434 -0.0121  0.1301
19915OST    PA330556  12.567   7.231  12.378  0.2942  0.1719 -0.4699
19915OST    PA430557  12.850   6.992  12.414 -0.1169 -0.0219 -0.3136
19915OST    PA530558  12.945   6.737  12.569  0.0852 -0.0130  0.2338
19915OST    PA630559  12.769   6.676  12.695  0.0981 -0.1676 -0.2614
19916OST    PA130560   3.659   2.423   3.892 -0.1530  0.2717  0.1073
19916OST    PA230561   3.558   2.415   3.546  0.3210  0.1824 -0.0191
19916OST    PA330562   3.664   2.122   3.552 -0.0098  0.2890 -0.0700
19916OST    PA430563   3.417   2.379   3.414 -0.0132 -0.3022  0.3797
19916OST    PA530564   3.227   2.603   3.463 -0.4925  0.3645  0.1496
19916OST    PA630565   3.360   2.695   3.614  0.4016  0.1066 -0.5735
19917OST    PA130566  14.898   7.538   8.068 -0.2271 -0.2144  0.0615
19917OST    PA230567  14.550   7.481   7.964 -0.0701  0.2329 -0.4745
19917OST    PA330568  14.606   7.593   7.707 -0.0758 -0.2762  0.0103
19917OST    PA430569  14.404   7.356   7.895 -0.2407 -0.3602 -0.1562
19917OST    PA530570  14.365   7.281   8.214 -0.1076 -0.1686  0.7726
19917OST    PA630571  14.508   7.417   8.330  0.0217 -0.0486 -0.0980
19918OST    PA130572  11.384   1.421   3.898 -0.0965 -0.1401  0.1930
19918OST    PA230573  11.567   1.111   3.941  0.1990 -0.3254 -0.1703
19918OST    PA330574  11.477   0.937   3.736 -0.0145 -0.1256 -0.2285
19918OST    PA430575  11.768   1.085   3.934 -0.1310  0.4072 -0.0808
19918OST    PA530576  11.829   1.285   4.193  0.3081 -0.0989  0.2870
19918OST    PA630577  11.584   1.284   4.253 -0.0259  0.1019 -0.0148
19919OST    PA130578   4.333   2.906   2.931 -0.0750  0.1149  0.0249
19919OST    PA230579   4.097   2.907   3.218 -0.0422  0.0611  0.0565
19919OST    PA330580   4.299   2.721   3.326 -0.3287  0.0997 -0.2186
19919OST    PA430581   4.078   3.050   3.384  0.0725  0.2561  0.0451
19919OST    PA530582   4.000   3.315   3.218 -0.3500 -0.3171  0.2018
19919OST    PA630583   3.982   3.186   3.011 -0.0137 -0.0267  0.2988
19920OST    PA130584  15.260   9.879  10.527 -0.2215  0.0514  0.1192
19920OST    PA230585  15.394   9.811  10.861 -0.0689  0.0099  0.2526
19920OST    PA330586  15.668   9.942  10.806 -0.1664  0.1400  0.2369
19920OST    PA430587  15.436   9.719  11.023 -0.1802  0.0390  0.1456
19920OST    PA530588  15.139   9.637  11.090  0.1143 -0.1862  0.1587
19920OST    PA630589  15.039   9.745  10.925 -0.1146 -0.4049  0.1970
19921OST    PA130590  12.628   4.860   1.044  0.2002  0.2496 -0.3168
19921OST    PA230591  12.719   4.749   0.717 -0.2911 -0.1029  0.2038
19921OST    PA330592  12.562   4.972   0.634  0.5686 -0.2069  0.4277
19921OST    PA430593  12.650   4.613   0.565  0.5848 -0.1337  0.1037
19921OST    PA530594  12.835   4.371   0.691  0.1399  0.3607 -0.2819
19921OST    PA630595  12.912   4.491   0.878 -0.2765 -0.1064  0.2635
19922OST    PA130596   2.642   5.268  12.548  0.1631 -0.2075 -0.0765
19922OST    PA230597   2.681   5.343  12.901  0.4444  0.0449 -0.0074
19922OST    PA330598   2.968   5.366  12.820  0.1962 -0.0808  0.5754
19922OST    PA430599   2.719   5.289  13.098  0.0625  0.0942 -0.1811
19922OST    PA530600   2.525   5.038  13.128  0.2503  0.1394  0.4947
19922OST    PA630601   2.419   5.091  12.900  0.3215  0.2931  0.4980
19923OST    PA130602  14.884  15.115  13.341 -0.2634 -0.0066  0.2474
19923OST    PA230603  14.564  14.985  13.373 -0.3687  0.1266  0.1555
19923OST    PA330604  14.587  14.709  13.352 -0.1180  0.3907 -0.3188
19923OST    PA430605  14.365  14.984  13.439 -0.1334 -0.0049  0.2263
19923OST    PA530606  14.277  15.287  13.439  0.0554  0.4148  0.1480
19923OST    PA630607  14.502  15.340  13.350  0.3586 -0.1440  0.4721
19924OST    PA130608   9.826   9.974   9.709 -0.2857  0.2458  0.0063
19924OST    PA230609   9.589   9.733   9.568  0.2254 -0.0310 -0.2447
19924OST    PA330610   9.753   9.628   9.367 -0.0532  0.1598 -0.1706
19924OST    PA430611   9.416   9.716   9.461 -0.2203 -0.1524  0.3857
19924OST    PA530612   9.266   9.774   9.696 -0.0269  0.1618 -0.2956
19924OST    PA630613   9.417   9.767   9.883  0.2409 -0.3239  0.2080
19925OST    PA130614   3.212  12.200   3.250  0.0010 -0.3879  0.1940
19925OST    PA230615   3.042  12.494   3.411  0.1436  0.2713 -0.0018
19925OST    PA330616   2.753  12.486   3.321 -0.0515 -0.1556 -0.1784
19925OST    PA430617   3.044  12.732   3.408 -0.1922  0.1342 -0.0028
19925OST    PA530618   3.325  12.712   3.538 -0.0610 -0.1736 -0.1072
19925OST    PA630619   3.340  12.522   3.604  0.1882  0.2546  0.0846
19926OST    PA130620  12.221  15.307   0.721  0.3310  0.1045 -0.0611
19926OST    PA230621  12.008  15.576   0.669 -0.0783  0.0915 -0.0165
19926OST    PA330622  12.253  15.697   0.797 -0.0152 -0.2715  0.5322
19926OST    PA430623  11.870  15.670   0.741 -0.2298 -0.4374  0.3246
19926OST    PA530624  11.672  15.616   0.525  0.1756  0.2734  0.2136
19926OST    PA630625  11.812  15.492   0.365 -0.0651 -0.0246  0.1158
19927OST    PA130626  15.340  15.033   2.319 -0.1393  0.0620 -0.3164
19927OST    PA230627  15.325  14.837   2.019  0.0388 -0.0751 -0.2934
19927OST    PA330628  15.027  14.846   2.005  0.1667  0.1817 -0.1715
19927OST    PA430629  15.349  14.647   1.917  0.0921 -0.0435  0.2486
19927OST    PA530630  15.638  14.719   1.826 -0.1219 -0.0372  0.1399
19927OST    PA630631  15.647  14.895   1.976  0.0895 -0.0534  0.0200
19928OST    PA130632  10.613   4.454   3.213  0.2429 -0.2197  0.0020
19928OST    PA230633  10.804   4.698   3.038  0.0565  0.0545 -0.6117
19928OST    PA330634  10.988   4.762   3.278  0.4129  0.1571 -0.0839
19928OST    PA430635  10.946   4.703   2.900 -0.0293 -0.0003 -0.1283
19928OST    PA530636  10.702   4.756   2.702  0.3899 -0.0661  0.0368
19928OST    PA630637  10.515   4.798   2.881  0.0271 -0.1068 -0.2290
19929OST    PA130638   8.122  12.369  10.060  0.3593 -0.1564  0.2883
19929OST    PA230639   8.109  12.116  10.319 -0.1352  0.2862  0.1991
19929OST    PA330640   8.243  12.072  10.600 -0.4375  0.1112  0.0560
19929OST    PA430641   8.156  11.939  10.260 -0.0143 -0.1887 -0.6096
19929OST    PA530642   7.936  11.924  10.048  0.3227 -0.0241  0.1371
19929OST    PA630643   7.792  12.042  10.192  0.0037 -0.3017  0.0356
19930OST    PA130644   5.772   9.256  13.402  0.4008 -0.2580  0.1908
19930OST    PA230645   5.926   8.963  13.313 -0.0067 -0.0006 -0.4227
19930OST    PA330646   6.128   9.098  13.179  0.0896 -0.5633 -0.2157
19930OST    PA430647   6.029   8.854  13.394  0.2388  0.0529 -0.0482
19930OST    PA530648   5.826   8.634  13.440 -0.0445  0.0183 -0.0723
19930OST    PA630649   5.633   8.781  13.403 -0.1432  0.3497  0.0711
19931OST    PA130650  10.310   3.671   8.729 -0.4582 -0.1242  0.1010
19931OST    PA230651  10.230   3.472   8.977  0.0366  0.2409  0.0693
19931OST    PA330652  10.015   3.638   9.089 -0.0321  0.0929  0.2581
19931OST    PA430653  10.126   3.280   9.016 -0.1487 -0.1275  0.1903
19931OST    PA530654  10.412   3.107   9.014  0.4777  0.1346 -0.0382
19931OST    PA630655  10.550   3.300   8.964  0.0289  0.2806  0.1755
19932OST    PA130656   0.222  12.283   3.865  0.1990  0.0931  0.0196
19932OST    PA230657   0.029  12.129   3.610  0.0458  0.2632 -0.0730
19932OST    PA330658  -0.123  12.369   3.675  0.1919 -0.1299  0.0158
19932OST    PA430659  -0.004  12.168   3.405 -0.4058 -0.0933  0.2494
19932OST    PA530660   0.215  11.940   3.339  0.0551 -0.1057 -0.1866
19932OST    PA630661   0.272  11.916   3.578 -0.1327 -0.0077  0.0569
19933OST    PA130662  13.951   2.187   4.196  0.1557 -0.2868  0.2197
19933OST    PA230663  14.071   2.433   3.962 -0.2246  0.4357  0.1854
19933OST    PA330664  13.801   2.449   3.887 -0.3582 -0.1006 -0.0391
19933OST    PA430665  14.147   2.522   3.788  0.0153 -0.5304 -0.3185
19933OST    PA530666  14.421   2.603   3.918  0.5766  0.1231  0.3913
19933OST    PA630667  14.405   2.545   4.128 -0.3119  0.0530 -0.1531
19934OST    PA130668   7.634   9.058   4.864 -0.1233 -0.1619 -0.2682
19934OST    PA230669   7.389   9.204   4.620 -0.2509 -0.2302 -0.1039
19934OST    PA330670   7.637   9.170   4.495  0.2099  0.0140 -0.6109
19934OST    PA430671   7.304   9.315   4.459  0.2628  0.3103  0.0707
19934OST    PA530672   7.082   9.423   4.663 -0.1252 -0.1341  0.0930
19934OST    PA630673   7.146   9.305   4.866  0.2611 -0.2215  0.1527
19935OST    PA130674  12.971   0.949   9.715  0.2057  0.1197 -0.1106
19935OST    PA230675  12.991   0.648   9.504 -0.0784  0.1752  0.0999
19935OST    PA330676  12.784   0.547   9.658 -0.0249  0.4487 -0.3787
19935OST    PA430677  12.930   0.552   9.328 -0.0291  0.2025 -0.1075
19935OST    PA530678  13.213   0.582   9.222 -0.2114  0.1149 -0.1981
19935OST    PA630679  13.329   0.740   9.353 -0.1972  0.1103 -0.4730
19936OST    PA130680   3.400   2.046   4.094  0.0780  0.1434 -0.3063
19936OST    PA230681   3.325   2.316   4.285 -0.1385 -0.2081 -0.0410
19936OST    PA330682   3.073   2.250   4.161  0.1723  0.0726 -0.4144
19936OST    PA430683   3.234   2.398   4.446 -0.0199  0.4322  0.2321
19936OST    PA530684   3.517   2.432   4.584 -0.0453 -0.2071 -0.0531
19936OST    PA630685   3.647   2.336   4.399  0.1843  0.2359 -0.1658
19937OST    PA130686  12.399   6.244  12.851 -0.2890 -0.3076 -0.1706
19937OST    PA230687  12.671   6.018  12.762 -0.0923 -0.5530  0.1864
19937OST    PA330688  12.474   5.793  12.750  0.3890 -0.1471  0.2803
19937OST    PA430689  12.825   5.929  12.778 -0.2288  0.2137 -0.0856
19937OST    PA530690  13.047   6.104  12.923  0.0107  0.2780 -0.2568
19937OST    PA630691  12.890   6.304  12.912 -0.1028  0.5125  0.3107
19938OST    PA130692   4.326  15.883   8.996 -0.1580 -0.0059 -0.1182
19938OST    PA230693   4.661  15.797   9.067 -0.3335 -0.0923 -0.4638
19938OST    PA330694   4.784  15.692   9.330  0.1340 -0.0357  0.4462
19938OST    PA430695   4.845  15.883   9.016  0.1462  0.0784 -0.3436
19938OST    PA530696   4.854  15.787   8.708  0.2669 -0.3593  0.1099
19938OST    PA630697   4.660  15.687   8.715  0.0383  0.0836 -0.0524
19939OST    PA130698  13.178  14.555   9.917 -0.0885 -0.0249  0.0975
19939OST    PA230699  13.162  14.583  10.290  0.0463 -0.2823 -0.1610
19939OST    PA330700  13.127  14.347  10.441  0.2568  0.0065 -0.0233
19939OST    PA430701  13.224  14.705  10.473 -0.1666 -0.3027  0.0420
19939OST    PA530702  13.116  15.012  10.366  0.4291  0.1011  0.3302
19939OST    PA630703  13.033  14.894  10.161 -0.1594 -0.5431 -0.3827
19940OST    PA130704  11.203  14.547  11.909 -0.0466 -0.0264  0.1071
19940OST    PA230705  11.465  14.777  11.961  0.0796  0.2956  0.2731
19940OST    PA330706  11.512  14.905  11.727  0.0413 -0.2174 -0.1357
19940OST    PA430707  11.601  14.869  12.075 -0.1797  0.3013 -0.2251
19940OST    PA530708  11.702  14.630  12.244 -0.2329  0.1459 -0.2102
19940OST    PA630709  11.566  14.481  12.151 -0.1007  0.1994 -0.1160
19941OST    PA130710  13.822  14.036  10.375  0.4075 -0.1131  0.3176
19941OST    PA230711  13.869  14.359  10.232  0.1559  0.0407  0.0442
19941OST    PA330712  14.049  14.405  10.440 -0.0763 -0.2837  0.4334
19941OST    PA430713  13.845  14.564  10.168 -0.0060 -0.0336  0.0667
19941OST    PA530714  13.614  14.551   9.951 -0.7014  0.2187  0.4084
19941OST    PA630715  13.634  14.314   9.950 -0.4026 -0.2248 -0.4169
19942OST    PA130716  10.835   6.406  10.390  0.1372 -0.3007 -0.2346
19942OST    PA230717  10.665   6.177  10.201 -0.1561 -0.1948  0.3257
19942OST    PA330718  10.877   6.026  10.068  0.0345 -0.1205  0.0514
19942OST    PA430719  10.516   6.082  10.117 -0.1045  0.1224 -0.2553
19942OST    PA530720  10.331   6.081  10.402 -0.3805  0.4130 -0.4127
19942OST    PA630721  10.509   6.178  10.547 -0.1771 -0.1478  0.2723
19943OST    PA130722   3.281   5.092   3.644  0.1447  0.1068  0.2553
19943OST    PA230723   2.934   5.120   3.601 -0.1098 -0.2003  0.2200
19943OST    PA330724   2.922   4.906   3.418 -0.1370 -0.0660 -0.1122
19943OST    PA430725   2.788   5.259   3.494  0.2011 -0.2249  0.0714
19943OST    PA530726   2.841   5.531   3.665 -0.2815  0.1287  0.0319
19943OST    PA630727   3.013   5.444   3.808  0.2071  0.1192 -0.0450
19944OST    PA130728  10.994   2.372  10.059  0.1731  0.1582 -0.1208
19944OST    PA230729  10.743   2.258  10.322  0.2634 -0.1937  0.2053
19944OST    PA330730  10.910   2.399  10.516 -0.1035 -0.0694 -0.1662
19944OST    PA430731  10.629   2.162  10.462  0.2804 -0.1363 -0.2147
19944OST    PA530732  10.406   2.103  10.230  0.5187 -0.1120  0.0707
19944OST    PA630733  10.532   2.193  10.065  0.3630 -0.1547 -0.1680
19945OST    PA130734   3.004   2.348   3.077  0.0145  0.0249 -0.0624
19945OST    PA230735   2.960   2.676   3.221  0.2083  0.0359 -0.0031
19945OST    PA330736   2.686   2.594   3.243  0.3973  0.5013 -0.1107
19945OST    PA430737   2.960   2.812   3.357  0.1806 -0.1195  0.2844
19945OST    PA530738   3.134   2.987   3.164  0.0407  0.2964  0.1320
19945OST    PA630739   3.159   2.846   2.992  0.3218 -0.0027  0.0128
19946OST    PA130740  15.716  15.807   3.980  0.0388 -0.0740 -0.0527
19946OST    PA230741  15.966  15.637   4.184 -0.0102 -0.1415 -0.3554
19946OST    PA330742  15.984  15.878   4.352  0.0681  0.0840  0.9292
19946OST    PA430743  16.150  15.601   4.204 -0.0742  0.3765 -0.0245
19946OST    PA530744  16.139  15.321   4.046  0.0664 -0.6269  0.0764
19946OST    PA630745  15.948  15.408   3.910  0.1622 -0.3302 -0.0692
19947OST    PA130746  11.920   6.080  12.019  0.0788  0.2326  0.1042
19947OST    PA230747  11.596   6.198  12.009  0.2192  0.0134 -0.2945
19947OST    PA330748  11.543   6.489  12.021 -0.5654 -0.0908  0.1190
19947OST    PA430749  11.452   6.170  11.857 -0.1657  0.3833 -0.2856
19947OST    PA530750  11.371   5.888  11.946  0.2434 -0.3938 -0.0018
19947OST    PA630751  11.524   5.856  12.132  0.0969 -0.1770 -0.0515
19948OST    PA130752   2.435   4.989   4.936  0.0213 -0.0388 -0.2083
19948OST    PA230753   2.375   5.074   4.593  0.0050  0.0443 -0.2608
19948OST    PA330754   2.638   4.924   4.573  0.4924  0.0874 -0.1142
19948OST    PA430755   2.393   5.191   4.440  0.1332 -0.0603 -0.0691
19948OST    PA530756   2.110   5.295   4.384 -0.0475  0.2422  0.3925
19948OST    PA630757   2.045   5.236   4.610 -0.3172  0.2334 -0.2658
19949OST    PA130758   0.500   7.796   3.267 -0.3763 -0.0612  0.2664
19949OST    PA230759   0.855   7.725   3.277  0.3230 -0.1331  0.1371
19949OST    PA330760   0.860   7.874   3.047  0.1772  0.2876  0.6612
19949OST    PA430761   0.992   7.854   3.381 -0.0113 -0.0586 -0.0469
19949OST    PA530762   0.928   7.660   3.638  0.4171  0.1920  0.0602
19949OST    PA630763   0.731   7.538   3.536  0.2976  0.6284  0.1259
19950OST    PA130764   5.187   5.031   3.675  0.0536  0.0965 -0.1713
19950OST    PA230765   5.155   5.087   4.011  0.2170  0.2606 -0.1331
19950OST    PA330766   4.901   4.915   3.976  0.0999  0.1042 -0.0297
19950OST    PA430767   5.139   5.095   4.202  0.0684 -0.0053  0.0922
19950OST    PA530768   5.289   5.363   4.284 -0.3802 -0.3836  0.2904
19950OST    PA630769   5.361   5.372   4.015  0.2181  0.1959 -0.1874
19951OST    PA130770   3.916  11.114   1.010  0.0870  0.0594 -0.0187
19951OST    PA230771   3.795  11.417   0.873 -0.4572  0.0733  0.1904
19951OST    PA330772   4.031  11.386   0.709 -0.2305  0.1333  0.4235
19951OST    PA430773   3.776  11.578   0.868  0.3065  0.3079 -0.0497
19951OST    PA530774   3.506  11.574   1.033  0.2355  0.0332  0.1566
19951OST    PA630775   3.487  11.330   1.062  0.0883 -0.1551  0.1020
19952OST    PA130776   8.477   8.564   9.063 -0.0095 -0.2283  0.1725
19952OST    PA230777   8.519   8.929   9.124  0.1021 -0.2278 -0.1862
19952OST    PA330778   8.478   8.938   8.819 -0.3095  0.0425 -0.4172
19952OST    PA430779   8.578   9.140   9.134 -0.0258  0.2397  0.0630
19952OST    PA530780   8.637   9.076   9.453  0.3780  0.2442 -0.1128
19952OST    PA630781   8.553   8.853   9.449 -0.0313  0.1013 -0.0005
19953OST    PA130782  14.853   0.621   4.357  0.0953  0.1486  0.0059
19953OST    PA230783  14.610   0.843   4.513  0.0386 -0.0885 -0.1099
19953OST    PA330784  14.731   0.737   4.754  0.0402 -0.1602  0.2262
19953OST    PA430785  14.540   1.015   4.619  0.3351 -0.2213  0.2249
19953OST    PA530786  14.393   1.120   4.336 -0.1717 -0.2378 -0.1443
19953OST    PA630787  14.431   0.913   4.202 -0.2043  0.5179  0.0612
19954OST    PA130788   3.821  11.591   9.207  0.1661 -0.2367  0.0460
19954OST    PA230789   3.547  11.356   9.233  0.1230  0.1091  0.3883
19954OST    PA330790   3.703  11.157   9.363 -0.3054  0.0156  0.0423
19954OST    PA430791   3.417  11.246   9.157  0.6017 -0.0703 -0.2877
19954OST    PA530792   3.233  11.487   9.094  0.2962  0.0667  0.1406
19954OST    PA630793   3.334  11.655   9.190 -0.1726  0.0994  0.1409
19955OST    PA130794   7.288   8.533   9.688 -0.2621  0.1419 -0.2939
19955OST    PA230795   7.541   8.730   9.867 -0.2854 -0.2393  0.3311
19955OST    PA330796   7.684   8.622   9.606  0.1313 -0.3982 -0.5128
19955OST    PA430797   7.714   8.782   9.965  0.2323  0.1119  0.1834
19955OST    PA530798   7.484   8.849  10.221 -0.3306  0.1005  0.1305
19955OST    PA630799   7.311   8.818  10.107  0.0553  0.1776 -0.4039
19956OST    PA130800   1.475  12.868   8.735  0.0909  0.2942  0.1087
19956OST    PA230801   1.714  12.680   8.889 -0.0371  0.1416  0.3325
19956OST    PA330802   1.654  12.727   9.177 -0.1279 -0.2115  0.3833
19956OST    PA430803   1.904  12.672   8.902 -0.2714 -0.0966 -0.1811
19956OST    PA530804   1.991  12.505   8.641 -0.2022 -0.2564  0.3272
19956OST    PA630805   1.782  12.520   8.553 -0.0605 -0.1441  0.0451
19957OST    PA130806  12.119  10.243   9.776 -0.2424 -0.1759  0.1125
19957OST    PA230807  12.007  10.109  10.083 -0.2410 -0.3645 -0.2908
19957OST    PA330808  11.906   9.848  10.053  0.1744  0.4798 -0.3718
19957OST    PA430809  11.877  10.176  10.210  0.1059 -0.0035  0.0609
19957OST    PA530810  12.064  10.347  10.388  0.1821  0.1882  0.0484
19957OST    PA630811  12.205  10.340  10.202 -0.2487 -0.3282 -0.0346
19958OST    PA130812   5.161  10.588   8.146 -0.4220 -0.3123 -0.1284
19958OST    PA230813   4.885  10.380   8.214 -0.0631 -0.0154 -0.1608
19958OST    PA330814   4.847  10.545   8.441 -0.0044 -0.4761  0.1442
19958OST    PA430815   4.857  10.190   8.316  0.1008  0.1653 -0.3962
19958OST    PA530816   4.976   9.983   8.125 -0.3243 -0.6044  0.0128
19958OST    PA630817   5.040  10.119   7.969  0.1040  0.1660  0.1139
19959OST    PA130818   8.598  12.631  10.167 -0.1292 -0.4284  0.2343
19959OST    PA230819   8.618  12.405   9.917  0.1015 -0.1817  0.1914
19959OST    PA330820   8.615  12.676   9.763  0.6852 -0.1162 -0.1536
19959OST    PA430821   8.527  12.299   9.767  0.1163  0.0242 -0.0629
19959OST    PA530822   8.445  12.045   9.931 -0.2114 -0.1700 -0.2286
19959OST    PA630823   8.558  12.155  10.143 -0.0056  0.0327  0.3978
19960OST    PA130824   4.392   1.827   4.784  0.1134 -0.2262  0.2079
19960OST    PA230825   4.538   1.899   4.455 -0.0165 -0.0499  0.0301
19960OST    PA330826   4.296   1.706   4.376 -0.3087 -0.0993 -0.2666
19960OST    PA430827   4.521   2.009   4.308 -0.2623  0.0038 -0.0682
19960OST    PA530828   4.786   2.174   4.373  0.3262  0.2362  0.2310
19960OST    PA630829   4.821   2.077   4.579 -0.1395  0.2810  0.1001
19961OST    PA130830   8.592   2.142  12.177  0.1228  0.1478 -0.3667
19961OST    PA230831   8.947   2.119  12.096 -0.0374  0.1740 -0.0122
19961OST    PA330832   9.155   2.072  12.312  0.3422 -0.0121 -0.0553
19961OST    PA430833   9.067   2.217  11.989 -0.5998 -0.0815 -0.1749
19961OST    PA530834   8.967   2.188  11.690  0.0035  0.1811 -0.2444
19961OST    PA630835   8.818   2.017  11.784 -0.1154 -0.0748  0.2912
19962OST    PA130836   6.137   9.119  10.283 -0.2141 -0.0441 -0.2125
19962OST    PA230837   6.359   8.828  10.321 -0.2145  0.1407 -0.0665
19962OST    PA330838   6.116   8.673  10.285  0.1444  0.1403  0.3107
19962OST    PA430839   6.500   8.653  10.302  0.2875  0.0874  0.2077
19962OST    PA530840   6.761   8.820  10.188  0.2283  0.3021  0.1287
19962OST    PA630841   6.673   9.010  10.229 -0.0956 -0.0601 -0.3118
19963OST    PA130842  15.288   8.804  12.228  0.3359 -0.0909 -0.2961
19963OST    PA230843  15.549   8.720  11.981  0.0195  0.0882 -0.0719
19963OST    PA330844  15.317   8.642  11.806  0.4388 -0.1446 -0.3390
19963OST    PA430845  15.647   8.787  11.788 -0.1277 -0.2047 -0.2611
19963OST    PA530846  15.926   8.782  11.970  0.4296  0.0233  0.4391
19963OST    PA630847  15.819   8.758  12.152 -0.0557  0.4929 -0.0997
19964OST    PA130848   7.502  14.582   3.072 -0.2118 -0.1297 -0.0105
19964OST    PA230849   7.600  14.591   3.413  0.2858  0.0293  0.1398
19964OST    PA330850   7.455  14.381   3.561  0.1477  0.2122  0.0469
19964OST    PA430851   7.757  14.598   3.569 -0.1071  0.0104  0.4016
19964OST    PA530852   7.841  14.928   3.528  0.0522  0.0014  0.3916
19964OST    PA630853   7.696  14.951   3.346  0.2000  0.2244 -0.2769
19965OST    PA130854  12.247   6.861  10.967 -0.4057  0.2193 -0.1204
19965OST    PA230855  12.184   7.240  10.942  0.0957 -0.3313 -0.2786
19965OST    PA330856  12.315   7.225  11.231 -0.2356 -0.0165  0.0080
19965OST    PA430857  12.243   7.446  10.894 -0.1288 -0.1680 -0.0760
19965OST    PA530858  12.300   7.381  10.587 -0.0296  0.0687  0.2648
19965OST    PA630859  12.230   7.153  10.619 -0.0644 -0.1283  0.1210
19966OST    PA130860   7.078  13.011  12.896  0.0599 -0.1040  0.3942
19966OST    PA230861   6.935  12.725  13.065  0.0857  0.1308  0.1526
19966OST    PA330862   6.984  12.883  13.294 -0.0163 -0.3438 -0.0054
19966OST    PA430863   6.825  12.574  13.175 -0.0552 -0.1414  0.2511
19966OST    PA530864   6.685  12.470  12.942  0.3116 -0.2850 -0.0398
19966OST    PA630865   6.790  12.623  12.755  0.2036 -0.2174  0.1179
19967OST    PA130866  13.754   4.942   0.812 -0.1542 -0.1226  0.0476
19967OST    PA230867  13.695   4.881   0.452  0.2490  0.2588 -0.3749
19967OST    PA330868  13.567   4.631   0.588  0.0222 -0.4608 -0.1528
19967OST    PA430869  13.517   4.935   0.358  0.1731 -0.0349 -0.1448
19967OST    PA530870  13.665   5.161   0.215  0.3059 -0.0587  0.5039
19967OST    PA630871  13.868   5.156   0.318  0.0459  0.5456  0.3228
19968OST    PA130872  11.654  14.409  12.587  0.3516 -0.0529 -0.1043
19968OST    PA230873  11.389  14.650  12.530 -0.0087 -0.2182 -0.2025
19968OST    PA330874  11.469  14.898  12.699  0.0908 -0.4185  0.2494
19968OST    PA430875  11.273  14.732  12.407  0.0766  0.0878 -0.0205
19968OST    PA530876  11.111  14.475  12.336 -0.4814 -0.0795  0.3190
19968OST    PA630877  11.230  14.352  12.525 -0.0531  0.0121 -0.0880
19969OST    PA130878  11.424  12.804   4.635 -0.1697  0.0250  0.1386
19969OST    PA230879  11.291  13.107   4.807  0.2129  0.2274  0.0345
19969OST    PA330880  11.428  13.327   4.963 -0.0702 -0.0791 -0.0593
19969OST    PA430881  11.137  13.225   4.757  0.2897  0.1452 -0.1275
19969OST    PA530882  10.924  13.023   4.846 -0.2053 -0.0557  0.2457
19969OST    PA630883  11.061  12.851   4.931  0.0161  0.1624 -0.3994
19970OST    PA130884   1.175   8.896  11.844  0.1047 -0.2894 -0.3439
19970OST    PA230885   1.501   8.789  11.860 -0.0686 -0.3876 -0.2530
19970OST    PA330886   1.430   8.590  12.072  0.2178  0.1418 -0.3599
19970OST    PA430887   1.642   8.690  11.778 -0.5077  0.1751  0.6511
19970OST    PA530888   1.689   8.857  11.506 -0.1746 -0.0523 -0.0111
19970OST    PA630889   1.517   9.012  11.583 -0.0283  0.0715  0.0112
19971OST    PA130890   6.430  10.803   1.950  0.2682  0.1230  0.1849
19971OST    PA230891   6.485  10.840   1.610 -0.0107  0.0091  0.1568
19971OST    PA330892   6.347  10.589   1.537  0.4924  0.3020 -0.1091
19971OST    PA430893   6.383  10.965   1.448 -0.0851  0.3034 -0.1245
19971OST    PA530894   6.414  11.250   1.553 -0.1036  0.2035 -0.3599
19971OST    PA630895   6.570  11.172   1.711 -0.1178  0.0584 -0.1760
19972OST    PA130896   3.618   4.751   2.844 -0.0042 -0.0054  0.1084
19972OST    PA230897   3.447   4.492   2.687  0.2682  0.5797  0.2716
19972OST    PA330898   3.500   4.302   2.882  0.0862 -0.1523  0.2062
19972OST    PA430899   3.352   4.341   2.525 -0.5508 -0.0128  0.0014
19972OST    PA530900   3.462   4.461   2.236 -0.2668  0.0712 -0.1069
19972OST    PA630901   3.568   4.648   2.402 -0.2720 -0.1860  0.2302
19973OST    PA130902  12.499   9.640   2.226 -0.0225 -0.0846  0.0477
19973OST    PA230903  12.312   9.738   2.488  0.2529  0.2102 -0.2198
19973OST    PA330904  12.389   9.985   2.357 -0.5827 -0.2768 -0.2649
19973OST    PA430905  12.159   9.803   2.589  0.1785 -0.3012  0.3602
19973OST    PA530906  12.004   9.511   2.614  0.2199 -0.2825 -0.0082
19973OST    PA630907  12.137   9.439   2.445 -0.1018 -0.0613 -0.0609
19974OST    PA130908   0.725   8.280   1.838 -0.0652 -0.2235 -0.0981
19974OST    PA230909   0.732   8.032   1.579  0.3564 -0.0498 -0.2135
19974OST    PA330910   0.987   8.144   1.523 -0.2321 -0.1209 -0.1322
19974OST    PA430911   0.760   7.859   1.508 -0.4521  0.1456  0.2293
19974OST    PA530912   0.469   7.805   1.394 -0.2737 -0.2659 -0.2280
19974OST    PA630913   0.384   7.996   1.483 -0.1867  0.2159 -0.2663
19975OST    PA130914   7.968   6.841   3.720 -0.3089 -0.1732 -0.2899
19975OST    PA230915   8.298   6.837   3.695  0.1800  0.0388 -0.3538
19975OST    PA330916   8.362   6.674   3.948  0.2487 -0.4339  0.3344
19975OST    PA430917   8.477   6.916   3.686  0.1847 -0.3895 -0.6067
19975OST    PA530918   8.410   6.995   3.388  0.4471 -0.0531  0.2081
19975OST    PA630919   8.201   6.905   3.335 -0.1517 -0.0337  0.0121
19976OST    PA130920   1.302   5.775  10.639  0.1743 -0.1576 -0.1781
19976OST    PA230921   1.043   6.018  10.695  0.0694  0.0234  0.2721
19976OST    PA330922   1.205   6.236  10.813 -0.0854  0.2787 -0.2164
19976OST    PA430923   0.951   6.145  10.567  0.4178 -0.1000  0.1868
19976OST    PA530924   0.722   5.919  10.522  0.4918 -0.5496 -0.0962
19976OST    PA630925   0.810   5.748  10.639 -0.2572  0.0482  0.1381
19977OST    PA130926   5.382   2.817   0.596 -0.2968  0.2717 -0.2092
19977OST    PA230927   5.709   2.938   0.557  0.2464 -0.0258 -0.1276
19977OST    PA330928   5.648   2.955   0.282  0.3185 -0.2667  0.2109
19977OST    PA430929   5.856   3.095   0.556  0.0658 -0.0074  0.2278
19977OST    PA530930   6.038   2.904   0.720 -0.0128 -0.0303 -0.3150
19977OST    PA630931   5.886   2.718   0.754  0.1001  0.0875  0.1376
19978OST    PA130932   0.005   6.364  10.383  0.0355 -0.0896  0.3395
19978OST    PA230933  -0.279   6.146  10.338  0.4624  0.0119  0.0563
19978OST    PA330934  -0.208   5.944  10.109  0.2890 -0.4010 -0.3633
19978OST    PA430935  -0.484   6.216  10.259 -0.4352  0.2484  0.3636
19978OST    PA530936  -0.600   6.311  10.523 -0.2108  0.0343 -0.2067
19978OST    PA630937  -0.397   6.219  10.640  0.1538  0.0518  0.0666
19979OST    PA130938   4.174   5.033   3.408  0.3389 -0.0749  0.0481
19979OST    PA230939   3.917   4.880   3.262  0.2082  0.0080 -0.1784
19979OST    PA330940   4.041   4.895   3.008 -0.3154  0.1533 -0.2633
19979OST    PA430941   3.744   4.980   3.219  0.1657  0.1057  0.3140
19979OST    PA530942   3.646   4.852   3.525  0.2976  0.3525  0.0890
19979OST    PA630943   3.835   4.759   3.583 -0.0338  0.0514 -0.2934
19980OST    PA130944   5.281  11.712   2.549 -0.0831 -0.0475  0.1038
19980OST    PA230945   5.279  11.751   2.184  0.2557 -0.5136 -0.0806
19980OST    PA330946   5.020  11.824   2.193  0.2970  0.4329 -0.1679
19980OST    PA430947   5.315  11.853   2.010 -0.0780 -0.0116  0.3398
19980OST    PA530948   5.466  11.568   1.929 -0.0639 -0.0755 -0.1173
19980OST    PA630949   5.477  11.471   2.132 -0.2771  0.0104  0.1343
19981OST    PA130950   4.437  12.998   4.627  0.2141 -0.4846 -0.2657
19981OST    PA230951   4.700  13.195   4.758 -0.0352 -0.1977  0.0037
19981OST    PA330952   4.844  13.246   4.516 -0.1940 -0.1182 -0.0981
19981OST    PA430953   4.868  13.208   4.889  0.1789  0.1734  0.1343
19981OST    PA530954   4.684  13.320   5.114 -0.1489  0.2097  0.4872
19981OST    PA630955   4.485  13.341   4.978 -0.0456  0.2141  0.1905
19982OST    PA130956   1.920  11.263  10.013 -0.2615 -0.0241  0.1227
19982OST    PA230957   2.022  11.620   9.974  0.2795  0.4125 -0.0825
19982OST    PA330958   2.171  11.687   9.728  0.3965 -0.1357  0.0595
19982OST    PA430959   1.903  11.764   9.973  0.0176 -0.0897 -0.2415
19982OST    PA530960   1.866  11.753  10.273 -0.0684 -0.2649 -0.2918
19982OST    PA630961   2.051  11.637  10.355  0.2064  0.2367  0.4672
19983OST    PA130962  10.733   0.857   5.286 -0.1099 -0.2550  0.2362
19983OST    PA230963  10.782   0.802   4.934  0.2292  0.2274  0.0021
19983OST    PA330964  11.049   0.839   5.009 -0.7028  0.1059 -0.2721
19983OST    PA430965  10.839   0.775   4.737  0.0677  0.1427  0.3243
19983OST    PA530966  10.590   0.749   4.620  0.2328  0.0811 -0.3846
19983OST    PA630967  10.462   0.665   4.826  0.2674  0.2525  0.4587
19984OST    PA130968  14.479   9.549  12.953  0.0634  0.1228 -0.2533
19984OST    PA230969  14.506   9.313  12.717 -0.0384  0.1930 -0.0120
19984OST    PA330970  14.391   9.080  12.846  0.0283 -0.5397 -0.1833
19984OST    PA430971  14.399   9.295  12.564 -0.0365 -0.0538  0.0222
19984OST    PA530972  14.648   9.433  12.389  0.5694 -0.3901 -0.2034
19984OST    PA630973  14.777   9.480  12.595 -0.0655  0.0035  0.0613
19985OST    PA130974   5.997   8.858   9.609 -0.0408  0.0744 -0.3182
19985OST    PA230975   5.712   8.987   9.435  0.3796 -0.2992  0.4606
19985OST    PA330976   5.830   8.846   9.221 -0.5703 -0.0537 -0.2583
19985OST    PA430977   5.524   9.039   9.336  0.2342  0.4038 -0.3998
19985OST    PA530978   5.369   9.098   9.614  0.1804  0.2433  0.1480
19985OST    PA630979   5.552   9.012   9.751  0.1938  0.0763  0.1094
19986OST    PA130980  10.293   6.847   9.303  0.4045 -0.0137  0.0633
19986OST    PA230981  10.093   6.525   9.243 -0.1387 -0.0012 -0.0002
19986OST    PA330982   9.815   6.579   9.264  0.2276  0.2827 -0.2541
19986OST    PA430983  10.073   6.304   9.184  0.1610 -0.2159  0.0669
19986OST    PA530984  10.333   6.157   9.279 -0.0886 -0.0794 -0.2267
19986OST    PA630985  10.401   6.364   9.386 -0.1122  0.0352  0.0637
19987OST    PA130986   7.792   8.997   1.002 -0.2687  0.3282  0.2584
19987OST    PA230987   7.585   9.283   1.088 -0.3944  0.1122  0.1806
19987OST    PA330988   7.846   9.378   1.145  0.1547 -0.3419  0.2669
19987OST    PA430989   7.498   9.468   1.109  0.0308  0.1339  0.0281
19987OST    PA530990   7.195   9.386   1.047  0.0366 -0.1230 -0.8460
19987OST    PA630991   7.273   9.129   1.029  0.2247 -0.3775 -0.2187
19988OST    PA130992   0.823  13.605  10.736  0.1671 -0.2885  0.1811
19988OST    PA230993   1.018  13.865  10.861  0.0855  0.1351 -0.4645
19988OST    PA330994   1.055  13.657  11.070 -0.2580 -0.4245  0.4577
19988OST    PA430995   1.039  13.993  10.973  0.0239  0.0110 -0.1542
19988OST    PA530996   1.092  14.162  10.701 -0.0417  0.8126  0.2913
19988OST    PA630997   1.048  13.996  10.540 -0.2707 -0.1770  0.2049
19989OST    PA130998  11.085  15.489  10.870  0.0266  0.0061 -0.0297
19989OST    PA230999  11.089  15.726  11.122  0.0941 -0.0024  0.1664
19989OST    PA331000  11.018  15.945  10.932  0.1082  0.0366  0.0435
19989OST    PA431001  11.027  15.822  11.263  0.1797  0.0461 -0.2016
19989OST    PA531002  11.240  15.685  11.490  0.2134  0.0096  0.0835
19989OST    PA631003  11.338  15.550  11.298 -0.0841 -0.0856 -0.0704
19990OST    PA131004  15.779  15.510   9.402  0.1931 -0.3946  0.2930
19990OST    PA231005  15.962  15.755   9.584  0.2229 -0.1432  0.0647
19990OST    PA331006  16.142  15.878   9.373  0.1923 -0.2709  0.6126
19990OST    PA431007  16.048  15.830   9.727 -0.2365  0.0694  0.2669
19990OST    PA531008  15.833  15.742   9.980  0.4049 -0.2238  0.4466
19990OST    PA631009  15.709  15.637   9.838  0.3908 -0.2790 -0.0597
19991OST    PA131010   8.496   9.456   9.672 -0.1299 -0.1089  0.0683
19991OST    PA231011   8.411   9.432   9.350  0.1080  0.1722  0.0729
19991OST    PA331012   8.518   9.685   9.341  0.0594  0.1377  0.0654
19991OST    PA431013   8.232   9.489   9.250 -0.1143  0.0511  0.4811
19991OST    PA531014   8.044   9.245   9.291  0.0717 -0.2188 -0.1774
19991OST    PA631015   8.250   9.135   9.435  0.1789  0.2886  0.3322
19992OST    PA131016   6.833   8.887   9.209 -0.0128 -0.0736  0.0190
19992OST    PA231017   6.823   8.806   9.586  0.1680  0.0607  0.1925
19992OST    PA331018   6.990   8.612   9.441  0.3324  0.0802  0.2275
19992OST    PA431019   6.870   8.752   9.789 -0.0285  0.1235 -0.0106
19992OST    PA531020   6.725   9.013   9.867  0.6697  0.0860  0.3397
19992OST    PA631021   6.650   9.128   9.681  0.1140  0.1021  0.1885
19993OST    PA131022   5.891  12.173  13.464  0.0183  0.1596 -0.0000
19993OST    PA231023   6.173  12.262  13.284 -0.0787 -0.2834  0.1037
19993OST    PA331024   6.155  11.963  13.194  0.4105 -0.0339 -0.1734
19993OST    PA431025   6.247  12.326  13.086 -0.2583 -0.5471 -0.0617
19993OST    PA531026   6.155  12.631  13.135 -0.4103  0.6688 -0.0311
19993OST    PA631027   6.093  12.593  13.342 -0.0116  0.0868 -0.1717
19994OST    PA131028   1.770   0.109   9.397  0.1867 -0.3154 -0.2035
19994OST    PA231029   1.842  -0.133   9.161 -0.2452  0.2561 -0.1864
19994OST    PA331030   2.120  -0.109   9.326  0.1269 -0.1725  0.0874
19994OST    PA431031   1.920  -0.189   8.983 -0.4778  0.2846 -0.0300
19994OST    PA531032   1.644  -0.187   8.827  0.0908 -0.2156 -0.2044
19994OST    PA631033   1.553  -0.023   9.015  0.0130  0.2538  0.4004
19995OST    PA131034   8.117   9.324   1.706  0.3860  0.0646  0.0732
19995OST    PA231035   8.435   9.533   1.707  0.5647  0.1267  0.1655
19995OST    PA331036   8.600   9.425   1.506 -0.3300  0.3903  0.6369
19995OST    PA431037   8.587   9.551   1.857 -0.0314  0.0155 -0.2251
19995OST    PA531038   8.410   9.707   2.063  0.0053 -0.1144 -0.0657
19995OST    PA631039   8.232   9.716   1.925 -0.1496  0.1099  0.0980
19996OST    PA131040  12.417   7.761   1.431 -0.1496  0.1340 -0.2504
19996OST    PA231041  12.565   7.703   1.756 -0.1239 -0.1119  0.1467
19996OST    PA331042  12.444   7.931   1.866  0.4870 -0.2187 -0.7252
19996OST    PA431043  12.728   7.726   1.857 -0.0792  0.1489 -0.0574
19996OST    PA531044  12.844   7.431   1.752  0.0084 -0.2362 -0.3882
19996OST    PA631045  12.629   7.381   1.605  0.0430 -0.3279  0.3331
19997OST    PA131046   1.118  14.901   3.178  0.2139  0.0005  0.0528
19997OST    PA231047   1.402  15.127   3.100 -0.2338 -0.2166 -0.4143
19997OST    PA331048   1.351  15.202   3.386 -0.3998  0.1290 -0.6730
19997OST    PA431049   1.559  15.269   3.072  0.5055 -0.0302  0.4808
19997OST    PA531050   1.662  15.034   2.879 -0.0575  0.0129 -0.1312
19997OST    PA631051   1.516  14.865   2.892  0.3248  0.0018 -0.0997
19998OST    PA131052  12.002  13.502   5.010  0.1034  0.1506 -0.2944
19998OST    PA231053  11.963  13.604   4.677  0.0999  0.3600  0.1098
19998OST    PA331054  12.243  13.708   4.695  0.0965  0.0695  0.0682
19998OST    PA431055  11.966  13.581   4.467  0.0473  0.2375  0.0866
19998OST    PA531056  11.657  13.649   4.469 -0.2298 -0.2237  0.3364
19998OST    PA631057  11.651  13.614   4.713  0.6271 -0.1570  0.4582
19999OST    PA131058  12.517   9.508  10.848 -0.1888 -0.2275  0.0250
19999OST    PA231059  12.727   9.244  10.924 -0.2204  0.4903 -0.4170
19999OST    PA331060  12.632   9.023  10.751 -0.3084  0.0578  0.0941
19999OST    PA431061  12.770   9.122  11.069  0.0655 -0.2205 -0.0166
19999OST    PA531062  13.010   9.311  11.219  0.3194  0.3695  0.1296
19999OST    PA631063  13.024   9.459  11.046 -0.1388 -0.2111 -0.0448
20000OST    PA131064   7.098   9.190  10.361  0.3683 -0.1325  0.1397
20000OST    PA231065   7.120   9.194  10.011  0.0818  0.1586 -0.1391
20000OST    PA331066   6.828   9.308   9.971 -0.1078  0.0850 -0.2692
20000OST    PA431067   7.130   9.103   9.814  0.2306 -0.1073 -0.2699
20000OST    PA531068   7.458   9.117   9.846  0.2980  0.1936  0.0074
20000OST    PA631069   7.479   9.212  10.095  0.2356  0.1969 -0.1970
20001OST    PA131070   3.748   6.778  10.174 -0.0099 -0.0474  0.0980
20001OST    PA231071   4.068   6.652  10.257 -0.1151 -0.0481 -0.2039
20001OST    PA331072   3.976   6.408  10.135 -0.1052 -0.0541  0.1095
20001OST    PA431073   4.231   6.555  10.377  0.3812  0.0388  0.4516
20001OST    PA531074   4.388   6.826  10.412  0.3153 -0.2077  0.1324
20001OST    PA631075   4.236   6.966  10.297 -0.0867 -0.2750 -0.1885
20002OST    PA131076   3.973   5.827   2.917  0.2084 -0.1763  0.3599
20002OST    PA231077   3.808   6.116   2.899 -0.0807 -0.0320 -0.5260
20002OST    PA331078   3.717   6.141   2.613  0.0644 -0.0353 -0.2525
20002OST    PA431079   3.637   6.224   2.991 -0.0188  0.1674 -0.0891
20002OST    PA531080   3.815   6.309   3.231  0.2841 -0.2383  0.2831
20002OST    PA631081   4.020   6.180   3.194  0.0738 -0.0203 -0.0963
20003OST    PA131082  10.081   2.565   2.419 -0.0996  0.0985 -0.0970
20003OST    PA231083  10.194   2.322   2.627 -0.5126  0.6716 -0.0314
20003OST    PA331084  10.488   2.338   2.570 -0.1050  0.0475 -0.0125
20003OST    PA431085  10.208   2.118   2.691  0.0767 -0.5532  0.1217
20003OST    PA531086  10.027   2.151   2.922 -0.1277 -0.1093  0.1134
20003OST    PA631087   9.993   2.358   2.908  0.1157  0.1938 -0.1266
20004OST    PA131088   7.983  13.242   5.566  0.1375 -0.1232  0.1028
20004OST    PA231089   7.790  13.528   5.502 -0.0934 -0.0676 -0.2479
20004OST    PA331090   7.710  13.440   5.785 -0.2508 -0.2812  0.0496
20004OST    PA431091   7.607  13.564   5.426  0.1707  0.3664 -0.4814
20004OST    PA531092   7.682  13.627   5.136  0.1214  0.5484 -0.0700
20004OST    PA631093   7.913  13.537   5.184 -0.2285 -0.4516 -0.0085
20005OST    PA131094   7.089   8.722  13.150  0.0786  0.1027 -0.0397
20005OST    PA231095   6.784   8.880  13.069 -0.0526  0.2958 -0.2683
20005OST    PA331096   6.954   9.104  13.032 -0.2338  0.1052  0.0933
20005OST    PA431097   6.638   8.989  13.133  0.1986  0.1200  0.1209
20005OST    PA531098   6.477   8.731  13.207 -0.2574  0.1809 -0.0614
20005OST    PA631099   6.590   8.567  13.125  0.2318  0.1302  0.0347
20006OST    PA131100   0.990   7.733   1.938  0.1232 -0.0949 -0.1001
20006OST    PA231101   1.256   7.526   1.952 -0.2011  0.3496 -0.1851
20006OST    PA331102   1.327   7.632   2.206 -0.0027  0.6786  0.0166
20006OST    PA431103   1.479   7.547   1.858  0.0599 -0.1379 -0.2316
20006OST    PA531104   1.355   7.426   1.599 -0.6770  0.1771  0.5835
20006OST    PA631105   1.149   7.358   1.673 -0.3687 -0.2789 -0.0502
20007OST    PA131106  11.345   9.824  13.366 -0.2035  0.1094 -0.0724
20007OST    PA231107  11.660   9.969  13.248  0.3869 -0.0579  0.1463
20007OST    PA331108  11.491  10.203  13.236 -0.2229 -0.3728 -0.5370
20007OST    PA431109  11.836  10.065  13.240 -0.0935  0.0125 -0.1456
20007OST    PA531110  12.012   9.797  13.244 -0.4225  0.2772  0.0730
20007OST    PA631111  11.832   9.665  13.283 -0.0327 -0.1185 -0.1782
20008OST    PA131112   5.259  10.039  11.188  0.1489  0.0004  0.1339
20008OST    PA231113   5.219  10.056  11.542  0.1690  0.0422 -0.2904
20008OST    PA331114   5.394  10.209  11.726  0.1006 -0.0412  0.3905
20008OST    PA431115   5.213   9.908  11.682  0.1834 -0.1369 -0.1896
20008OST    PA531116   4.883   9.887  11.619 -0.0798  0.1951 -0.4464
20008OST    PA631117   4.889  10.025  11.435 -0.0173 -0.1508 -0.2601
20009OST    PA131118   1.290  10.547   1.854 -0.0779 -0.2284 -0.1952
20009OST    PA231119   1.027  10.721   2.035  0.3263 -0.1132  0.2668
20009OST    PA331120   1.146  10.971   1.997  0.3325 -0.0757  0.0525
20009OST    PA431121   0.922  10.773   2.189  0.1803 -0.1029  0.3207
20009OST    PA531122   0.849  10.472   2.320 -0.0077  0.1443  0.1084
20009OST    PA631123   0.963  10.383   2.124 -0.0846 -0.1439  0.0811
20010OST    PA131124   9.852   9.680   8.460 -0.2708 -0.2075 -0.1975
20010OST    PA231125   9.951   9.617   8.795 -0.3252 -0.2252  0.0329
20010OST    PA331126   9.826   9.390   8.920  0.1693  0.2456  0.2889
20010OST    PA431127   9.956   9.740   8.971  0.0144  0.0336  0.2918
20010OST    PA531128  10.251   9.822   8.935  0.0301  0.0220  0.4511
20010OST    PA631129  10.308   9.738   8.720 -0.0200 -0.2428  0.0686
20011OST    PA131130  14.251   6.107   8.741  0.0789  0.0978  0.1422
20011OST    PA231131  14.337   6.373   8.993 -0.0243  0.2463 -0.2498
20011OST    PA331132  14.311   6.270   9.272  0.0682  0.1180  0.6085
20011OST    PA431133  14.258   6.566   9.042 -0.0135  0.2371 -0.3209
20011OST    PA531134  14.416   6.732   8.854 -0.5150  0.4085  0.2895
20011OST    PA631135  14.566   6.558   8.732  0.1364  0.1898  0.0912
20012OST    PA131136   8.363  10.572   9.337 -0.0619 -0.0831  0.2079
20012OST    PA231137   8.578  10.403   9.553 -0.0386 -0.2510 -0.0099
20012OST    PA331138   8.383  10.281   9.695  0.2519  0.1366 -0.4957
20012OST    PA431139   8.702  10.459   9.711 -0.1339 -0.0017 -0.1053
20012OST    PA531140   8.977  10.529   9.570  0.1227 -0.3593 -0.3156
20012OST    PA631141   8.862  10.466   9.357 -0.0975  0.4362 -0.3858
20013OST    PA131142   5.290   3.534   9.914 -0.2142 -0.0696 -0.0380
20013OST    PA231143   5.222   3.753  10.179  0.0054  0.0950 -0.1763
20013OST    PA331144   5.079   3.600  10.400  0.3729 -0.0091  0.1522
20013OST    PA431145   5.123   3.901  10.213  0.4451  0.1345 -0.0396
20013OST    PA531146   5.334   4.115  10.088 -0.1663  0.0404  0.0351
20013OST    PA631147   5.507   3.950  10.042 -0.4609 -0.0496 -0.1493
20014OST    PA131148   1.369   0.008   4.935 -0.2345  0.3256  0.3898
20014OST    PA231149   1.549   0.159   4.673  0.1989  0.3264  0.0466
20014OST    PA331150   1.285   0.291   4.669 -0.0760  0.2927 -0.2055
20014OST    PA431151   1.644   0.309   4.623  0.3404  0.2603 -0.3259
20014OST    PA531152   1.909   0.224   4.721  0.2135  0.1255  0.1427
20014OST    PA631153   1.864  -0.032   4.733 -0.0035  0.0633 -0.1537
20015OST    PA131154   8.061   8.892  13.012 -0.0239 -0.3746  0.2173
20015OST    PA231155   8.211   8.836  13.322  0.0473 -0.1523  0.0443
20015OST    PA331156   8.133   9.099  13.446  0.0679 -1.0350 -0.1501
20015OST    PA431157   8.194   8.738  13.507  0.1992 -0.1829  0.0063
20015OST    PA531158   8.402   8.548  13.399 -0.2064 -0.3164 -0.5433
20015OST    PA631159   8.439   8.603  13.190  0.1878 -0.1438  0.1885
  15.88890  15.88890  13.54129
