[ moleculetype ]
; molname        nrexcl
BOR              1


[ atoms ]
; id type resnr residue   atom  cgnr    charge     mass

1     SN3     1     BOR    PA1  1      0.00000     54.00
2     TC3     1     BOR    PA2  2      0.00000     36.00
3     SC3     1     BOR    PA3  3      0.00000     54.00
4     SC3     1     BOR    PA4  4      0.00000     54.00


[ constraints ]
;   i     j   funct   length

; constraint type 1
    1     2       1    0.260      ; 1

; constraint type 2
    2     3       1    0.252      ; 2

; constraint type 3
    3     4       1    0.249      ; 3

; constraint type 4
    2     4       1    0.246      ; 4


[ angles ]
;   i     j     k   funct     angle   force.c.

; angle type 1
    4     2     3       2     59.82    960.85           ; 1

; angle type 2
    1     3     2       2     63.75    600.85           ; 2

; angle type 3
    2     4     3       2     61.34    960.85           ; 3

; angle type 4
    1     2     3       2     55.71    960.85           ; 4


