[ moleculetype ]
; molname        nrexcl
CAP              1


[ atoms ]
; id type resnr residue   atom  cgnr    charge     mass

1      C1     1     CAP    PA1  1      0.00000     72.00
2     TC5     1     CAP    PA2  2      0.00000     36.00
3      C1     1     CAP    PA3  3      0.00000     72.00
4    TN3a     1     CAP    PA4  4      0.00000     36.00
5    TN3d     1     CAP    PA5  5      0.00000     36.00
6     TC5     1     CAP    PA6  6      0.00000     36.00
7     TC5     1     CAP    PA7  7      0.00000     36.00
8    TN1a     1     CAP    PA8  8      0.00000     36.00
9     SP1     1     CAP    PA9  9      0.00000     54.00


[ constraints ]
;   i     j   funct   length

; constraint type 1
    6     7       1    0.218      ; 1

; constraint type 2
    7     9       1    0.246      ; 2

; constraint type 3
    6     9       1    0.281      ; 3


[ bonds ]
;   i     j   funct   length   force.c.

; bond type 1
    1     2       1    0.246  9303.58           ; 1

; bond type 2
    2     3       1    0.340  5824.57           ; 2

; bond type 3
    3     4       1    0.328  3456.01           ; 3

; bond type 4
    4     5       1    0.214  10591.72           ; 4

; bond type 5
    5     6       1    0.240  12288.11           ; 5

; bond type 6
    7     8       1    0.208  11979.13           ; 6


[ angles ]
;   i     j     k   funct     angle   force.c.

; angle type 1
    5     6     7       2     96.61    125.80           ; 1

; angle type 2
    5     6     9       2    150.77    469.14           ; 2

; angle type 3
    6     7     8       2    173.53    269.05           ; 3

; angle type 4
    9     7     8       2     91.46    793.55           ; 4


[ dihedrals ]
;   i     j     k     l   funct     dihedral   force.c.   mult.

; dihedral type 1
    6     9     7     8       1        -4.09    1.49       1     ; 1


