[ moleculetype ]
; molname        nrexcl
CAT              1


[ atoms ]
; id type resnr residue   atom  cgnr    charge     mass

1     SP1     1     CAT    PA1  1      0.00000     54.00
2     SP1     1     CAT    PA2  2      0.00000     54.00
3      P1     1     CAT    PA3  3      0.00000     72.00
4    SN2a     1     CAT    PA4  4      0.00000     54.00
5     TC5     1     CAT    PA5  5      0.00000     36.00
6     SP1     1     CAT    PA6  6      0.00000     54.00
7     SP1     1     CAT    PA7  7      0.00000     54.00


[ bonds ]
;   i     j   funct   length   force.c.

; bond type 1
    1     2       1    0.304  10596.40           ; 1

; bond type 2
    1     3       1    0.371  9638.02           ; 2

; bond type 3
    2     4       1    0.372  9089.49           ; 3

; bond type 4
    3     4       1    0.222  10909.67           ; 4

; bond type 5
    4     5       1    0.271  9770.09           ; 5

; bond type 6
    5     6       1    0.285  9634.35           ; 6

; bond type 7
    5     7       1    0.285  9140.11           ; 7

; bond type 8
    6     7       1    0.250  9360.20           ; 8


[ angles ]
;   i     j     k   funct     angle   force.c.

; angle type 1
    4     5     6       2    166.08    213.67           ; 1

; angle type 2
    4     5     7       2    117.90    193.69           ; 2


[ dihedrals ]
;   i     j     k     l   funct     dihedral   force.c.   mult.

; dihedral type 1
    1     2     3     4       2      -174.72 -189.65            ; 1

; dihedral type 2
    1     2     4     3       2         5.64  394.28            ; 2


