[ moleculetype ]
; molname        nrexcl
CIN              1


[ atoms ]
; id type resnr residue   atom  cgnr    charge     mass

1    TN3a     1     CIN    PA1  1      0.00000     36.00
2     TC5     1     CIN    PA2  2      0.00000     36.00
3     TC5     1     CIN    PA3  3      0.00000     36.00
4     TC5     1     CIN    PA4  4      0.00000     36.00
5     TC5     1     CIN    PA5  5      0.00000     36.00


[ constraints ]
;   i     j   funct   length

; constraint type 1
    3     4       1    0.216      ; 1

; constraint type 2
    4     5       1    0.220      ; 2

; constraint type 3
    3     5       1    0.220      ; 3


[ bonds ]
;   i     j   funct   length   force.c.

; bond type 1
    1     2       1    0.247  9319.64           ; 1

; bond type 2
    2     3       1    0.241  9669.04           ; 2


[ angles ]
;   i     j     k   funct     angle   force.c.

; angle type 1
    2     3     4       2    162.10    543.33           ; 1

; angle type 2
    2     3     5       2     95.95     76.00           ; 2


