[ moleculetype ]
; molname        nrexcl
CNN              1


[ atoms ]
; id type resnr residue   atom  cgnr    charge     mass

1     TC5     1     CNN    PA1  1      0.00000     36.00
2     TC3     1     CNN    PA2  2      0.00000     36.00
3     TC3     1     CNN    PA3  3      0.00000     36.00
4     TC5     1     CNN    PA4  4      0.00000     36.00


[ bonds ]
;   i     j   funct   length   force.c.

; bond type 1
    1     2       1    0.241  8740.66           ; 1

; bond type 2
    2     3       1    0.214  10721.57           ; 2

; bond type 3
    2     4       1    0.284  10072.84           ; 3

; bond type 4
    3     4       1    0.243  12464.83           ; 4


[ angles ]
;   i     j     k   funct     angle   force.c.

; angle type 1
    1     2     3       2    101.02    365.04           ; 1

; angle type 2
    1     2     4       2    166.69    702.90           ; 2


[ dihedrals ]
;   i     j     k     l   funct     dihedral   force.c.   mult.

; dihedral type 1
    4     3     2     1       1      -162.83   -1.77       1     ; 1


