[ moleculetype ]
; molname        nrexcl
EMO              1


[ atoms ]
; id type resnr residue   atom  cgnr    charge     mass

1     SP1     1     EMO    PA1  1      0.00000     54.00
2     SP1     1     EMO    PA2  2      0.00000     54.00
3     N3a     1     EMO    PA3  3      0.00000     72.00
4     N3a     1     EMO    PA4  4      0.00000     72.00
5     SP1     1     EMO    PA5  5      0.00000     54.00
6     SC5     1     EMO    PA6  6      0.00000     54.00


[ bonds ]
;   i     j   funct   length   force.c.

; bond type 1
    3     4       1    0.281  8533.84           ; 1

; bond type 2
    1     2       1    0.305  10370.66           ; 2

; bond type 3
    6     5       1    0.306  9778.58           ; 3

; bond type 4
    1     4       1    0.379  9344.11           ; 4

; bond type 5
    2     3       1    0.298  7820.42           ; 5

; bond type 6
    3     5       1    0.296  11139.78           ; 6

; bond type 7
    6     4       1    0.384  9730.46           ; 7


[ dihedrals ]
;   i     j     k     l   funct     dihedral   force.c.   mult.

; dihedral type 1
    1     2     3     4       2        -0.42  -57.31            ; 1

; dihedral type 2
    3     4     6     5       2         0.99  522.48            ; 2

; dihedral type 3
    1     2     5     6       2         1.03   57.99            ; 3

; dihedral type 4
    2     1     6     5       2        -0.26  180.92            ; 4


