[ moleculetype ]
; molname        nrexcl
FER              1


[ atoms ]
; id type resnr residue   atom  cgnr    charge     mass

1    SN1a     1     FER    PA1  1      0.00000     54.00
2     SN3     1     FER    PA2  2      0.00000     54.00
3     SC5     1     FER    PA3  3      0.00000     54.00
4     TC5     1     FER    PA4  4      0.00000     36.00
5     SP2     1     FER    PA5  5      0.00000     54.00


[ constraints ]
;   i     j   funct   length

; constraint type 1
    1     2       1    0.298      ; 1

; constraint type 2
    1     3       1    0.320      ; 2

; constraint type 3
    2     3       1    0.274      ; 3


[ bonds ]
;   i     j   funct   length   force.c.

; bond type 1
    3     4       1    0.245  7763.50           ; 1

; bond type 2
    4     5       1    0.241  10578.66           ; 2


[ angles ]
;   i     j     k   funct     angle   force.c.

; angle type 1
    1     3     4       2    125.45     67.96           ; 1

; angle type 2
    2     3     4       2    179.78    599.38           ; 2


[ dihedrals ]
;   i     j     k     l   funct     dihedral   force.c.   mult.

; dihedral type 1
    1     2     3     4       1         2.04    1.24       1     ; 1


