[ moleculetype ]
; molname        nrexcl
GEN              1


[ atoms ]
; id type resnr residue   atom  cgnr    charge     mass

1     SP1     1     GEN    PA1  1      0.00000     54.00
2     SP1     1     GEN    PA2  2      0.00000     54.00
3     N3a     1     GEN    PA3  3      0.00000     72.00
4     N3a     1     GEN    PA4  4      0.00000     72.00
5     TC5     1     GEN    PA5  5      0.00000     36.00
6     SP1     1     GEN    PA6  6      0.00000     54.00
7     TC5     1     GEN    PA7  7      0.00000     36.00


[ bonds ]
;   i     j   funct   length   force.c.

; bond type 1
    4     7       1    0.410  13025.17           ; 1

; bond type 2
    3     5       1    0.383  8595.01           ; 2

; bond type 3
    4     5       1    0.300  8716.64           ; 3

; bond type 4
    3     7       1    0.492  14449.08           ; 4

; bond type 5
    1     4       1    0.470  9193.39           ; 5

; bond type 6
    6     7       1    0.244  8126.59           ; 6

; bond type 7
    5     7       1    0.218  7263.15           ; 7

; bond type 8
    5     6       1    0.278  9026.82           ; 8

; bond type 9
    3     4       1    0.246  8369.79           ; 9

; bond type 10
    1     3       1    0.368  9709.75           ; 10

; bond type 11
    1     2       1    0.305  9911.60           ; 11

; bond type 12
    2     4       1    0.297  9025.24           ; 12

; bond type 13
    2     3       1    0.403  9334.42           ; 13


[ angles ]
;   i     j     k   funct     angle   force.c.

; angle type 1
    4     5     6       2    147.07    257.15           ; 1

; angle type 2
    4     5     7       2    103.55     85.48           ; 2

; angle type 3
    2     4     5       2    166.83   1045.91           ; 3


[ dihedrals ]
;   i     j     k     l   funct     dihedral   force.c.   mult.

; dihedral type 1
    2     3     4     5       1         0.54    1.78       1     ; 1

; dihedral type 2
    7     6     5     4       1         2.64   -1.64       1     ; 2


