[ moleculetype ]
; molname        nrexcl
MAG              1


[ atoms ]
; id type resnr residue   atom  cgnr    charge     mass

1      C4     1     MAG    PA1  1      0.00000     72.00
2     TC5     1     MAG    PA2  2      0.00000     36.00
3     SP1     1     MAG    PA3  3      0.00000     54.00
4     TC5     1     MAG    PA4  4      0.00000     36.00
5     TC5     1     MAG    PA5  5      0.00000     36.00
6     SP1     1     MAG    PA6  6      0.00000     54.00
7     TC5     1     MAG    PA7  7      0.00000     36.00
8      C4     1     MAG    PA8  8      0.00000     72.00


[ bonds ]
;   i     j   funct   length   force.c.

; bond type 1
    4     5       1    0.235  9537.98           ; 1

; bond type 2
    1     2       1    0.282  14175.55           ; 2

; bond type 3
    7     8       1    0.289  13454.35           ; 3

; bond type 4
    2     4       1    0.217  7947.08           ; 4

; bond type 5
    7     5       1    0.216  8644.14           ; 5

; bond type 6
    3     4       1    0.245  8852.18           ; 6

; bond type 7
    5     6       1    0.245  8479.41           ; 7

; bond type 8
    2     3       1    0.280  8833.46           ; 8

; bond type 9
    7     6       1    0.280  10950.33           ; 9


[ angles ]
;   i     j     k   funct     angle   force.c.

; angle type 1
    1     2     3       2    147.71    323.07           ; 1

; angle type 2
    8     7     6       2    148.62    318.08           ; 2

; angle type 3
    1     2     4       2    101.09    191.86           ; 3

; angle type 4
    8     7     5       2     99.55    119.60           ; 4

; angle type 5
    2     4     5       2    156.18    623.03           ; 5

; angle type 6
    7     5     4       2    154.73    686.77           ; 6


[ dihedrals ]
;   i     j     k     l   funct     dihedral   force.c.   mult.

; dihedral type 1
    2     3     4     5       1       163.70   -1.97       1     ; 1

; dihedral type 2
    3     4     2     1       1         0.51    1.61       1     ; 2

; dihedral type 3
    5     6     7     8       1        -0.56   -1.75       1     ; 3


