[ moleculetype ]
; molname        nrexcl
PUE              1


[ atoms ]
; id type resnr residue   atom  cgnr    charge     mass

1     SP1     1     PUE    PA1  1      0.00000     54.00
2     TC5     1     PUE    PA2  2      0.00000     36.00
3     TC5     1     PUE    PA3  3      0.00000     36.00
4     N3a     1     PUE    PA4  4      0.00000     72.00
5    SN2a     1     PUE    PA5  5      0.00000     54.00
6     TC5     1     PUE    PA6  6      0.00000     36.00
7     SP1     1     PUE    PA7  7      0.00000     54.00
8    TN2a     1     PUE    PA8  8      0.00000     36.00
9      N3     1     PUE    PA9  9      0.00000     72.00
10     N3     1     PUE    PB1  10     0.00000     72.00


[ bonds ]
;   i     j   funct   length   force.c.

; bond type 1
    1     2       1    0.248  10247.31           ; 1

; bond type 2
    1     3       1    0.325  7361.13           ; 2

; bond type 3
    2     3       1    0.221  12629.01           ; 3

; bond type 4
    4     5       1    0.241  9546.77           ; 4

; bond type 5
    5     7       1    0.378  5299.65           ; 5

; bond type 6
    6     7       1    0.244  10745.13           ; 6

; bond type 7
    4     6       1    0.316  10222.62           ; 7

; bond type 8
    8     9       1    0.256  11433.04           ; 8

; bond type 9
    8    10       1    0.277  10867.93           ; 9

; bond type 10
    9    10       1    0.383  9539.28           ; 10

; bond type 11
    3     4       1    0.292  9597.91           ; 11

; bond type 12
    7     8       1    0.217  9320.24           ; 12


[ angles ]
;   i     j     k   funct     angle   force.c.

; angle type 1
    1     3     4       2    144.17    490.97           ; 1

; angle type 2
    2     3     4       2    101.20    118.66           ; 2

; angle type 3
    7     8     9       2    133.40    678.90           ; 3

; angle type 4
    7     8    10       2    100.62    228.16           ; 4


[ dihedrals ]
;   i     j     k     l   funct     dihedral   force.c.   mult.

; dihedral type 1
    4     5     7     6       2        -2.14  117.73            ; 1

; dihedral type 2
    5     4     7     6       2        -4.36   -2.68            ; 2


