[ moleculetype ]
; molname        nrexcl
TPN              1


[ atoms ]
; id type resnr residue   atom  cgnr    charge     mass

1     SC5     1     TPN    PA1  1      0.00000     54.00
2     TC3     1     TPN    PA2  2      0.00000     36.00
3     SP1     1     TPN    PA3  3      0.00000     54.00
4     SC2     1     TPN    PA4  4      0.00000     54.00


[ bonds ]
;   i     j   funct   length   force.c.

; bond type 1
    1     2       1    0.235  14419.75           ; 1

; bond type 2
    1     3       1    0.285  10061.51           ; 2

; bond type 3
    2     3       1    0.220  12058.63           ; 3

; bond type 4
    3     4       1    0.243  14151.33           ; 4


[ angles ]
;   i     j     k   funct     angle   force.c.

; angle type 1
    1     3     4       2    166.49   1235.37           ; 1

; angle type 2
    2     3     4       2    101.74    806.63           ; 2

; angle type 3
    2     1     3       2     47.90   1480.03           ; 3


[ dihedrals ]
;   i     j     k     l   funct     dihedral   force.c.   mult.

; dihedral type 1
    1     2     3     4       1         4.02    2.06       1     ; 1


