Martini system
30839
    1CHOL   ROH    1   2.987   6.763   5.722  0.1901  0.1340  0.0065
    1CHOL    R1    2   2.868   6.604   5.923  0.3790 -0.0039  0.0104
    1CHOL    R2    3   2.968   6.588   6.180  0.2384  0.3546  0.0841
    1CHOL    R3    4   2.715   6.660   6.249  0.0292 -0.1336 -0.1234
    1CHOL    R4    5   2.818   6.519   6.484  0.3527  0.5467  0.1876
    1CHOL    R5    6   2.634   6.475   6.377  0.4633 -0.1194  0.2079
    1CHOL    C1    7   2.494   6.546   6.725  0.2229  0.2004  0.0529
    1CHOL    C2    8   2.514   6.333   6.900 -0.1405 -0.1107  0.0167
    2XCA    COO    9   2.461   0.840   4.425  0.1282 -0.1837 -0.0435
    2XCA     C1   10   2.195   0.876   4.815  0.1338 -0.2602 -0.1858
    2XCA     C2   11   2.050   1.081   5.256 -0.1104  0.2422  0.0280
    2XCA     C3   12   1.974   1.013   5.707 -0.0523  0.1180  0.1655
    2XCA     C4   13   2.015   0.922   6.136 -0.2976  0.0309  0.2215
    2XCA     C5   14   2.380   0.801   6.357  0.1708  0.1861  0.3084
    2XCA     C6   15   2.755   0.435   6.377  0.1368  0.0788  0.0566
    3XCA    COO   16   7.269   1.459   8.094  0.1108 -0.2111 -0.0062
    3XCA     C1   17   7.330   1.592   7.669  0.1623 -0.2415  0.0606
    3XCA     C2   18   7.436   1.666   7.180  0.0150 -0.4293 -0.1381
    3XCA     C3   19   7.835   1.673   7.011  0.1458 -0.1077 -0.4698
    3XCA     C4   20   8.233   1.485   6.829 -0.0553 -0.0488  0.1337
    3XCA     C5   21   8.525   1.437   6.539  0.1463 -0.0859 -0.0118
    3XCA     C6   22   8.868   1.475   6.155  0.0470  0.0551 -0.0423
    4XCA    COO   23   0.703   1.050   4.805  0.2824 -0.1081 -0.0379
    4XCA     C1   24   0.270   0.835   4.956  0.4609 -0.1113 -0.0406
    4XCA     C2   25   0.140   1.005   5.330  0.0905  0.1446 -0.0401
    4XCA     C3   26   0.122   1.088   5.840 -0.0317 -0.1061 -0.1340
    4XCA     C4   27   0.309   1.129   6.265 -0.1041  0.1691 -0.2834
    4XCA     C5   28   0.670   1.058   6.360  0.1548  0.2991  0.1804
    4XCA     C6   29   1.109   0.990   6.493 -0.0064  0.0257  0.1988
    5CHOL   ROH   30   8.198   1.966   7.925  0.0461  0.3068  0.0173
    5CHOL    R1   31   8.345   1.968   7.683  0.0314  0.1944  0.0074
    5CHOL    R2   32   8.297   2.150   7.481  0.1007  0.1761 -0.0209
    5CHOL    R3   33   8.563   2.202   7.508  0.1275  0.0626 -0.0538
    5CHOL    R4   34   8.502   2.269   7.229  0.1745 -0.1667 -0.1289
    5CHOL    R5   35   8.658   2.134   7.300  0.1025 -0.1876  0.0091
    5CHOL    C1   36   8.870   2.387   7.109  0.2425 -0.4729 -0.2226
    5CHOL    C2   37   8.988   2.382   6.763  0.3778  0.3728  0.0015
    6CHOL   ROH   38  10.948   7.322   5.184 -0.1379 -0.0627  0.2717
    6CHOL    R1   39  11.082   7.307   5.433  0.0892 -0.0706  0.1515
    6CHOL    R2   40  10.981   7.165   5.648  0.1429  0.1494  0.3260
    6CHOL    R3   41  11.225   7.044   5.641  0.0126 -0.1138  0.1500
    6CHOL    R4   42  11.112   6.969   5.901  0.1743  0.1290  0.2942
    6CHOL    R5   43  11.306   7.062   5.866  0.2440 -0.0926  0.0674
    6CHOL    C1   44  11.416   6.742   6.042  0.0703 -0.1299  0.1106
    6CHOL    C2   45  11.607   6.606   6.359  0.1803 -0.0667  0.2584
    7XCA    COO   46   7.795  10.338   7.892 -0.1014 -0.0542  0.0631
    7XCA     C1   47   7.564  10.086   7.785 -0.1688  0.1528  0.2925
    7XCA     C2   48   7.274  10.255   7.417  0.2211 -0.2079  0.0631
    7XCA     C3   49   6.934  10.254   7.141 -0.1284  0.2640  0.1004
    7XCA     C4   50   6.675  10.016   7.364  0.1380  0.0342  0.0251
    7XCA     C5   51   6.652   9.809   7.693  0.1260  0.0712  0.1973
    7XCA     C6   52   6.584   9.984   8.136  0.1385 -0.3786  0.0665
    8CHOL   ROH   53   8.767   5.612   5.017 -0.0692 -0.0095 -0.0242
    8CHOL    R1   54   8.775   5.727   5.275  0.0374  0.0290 -0.0433
    8CHOL    R2   55   8.618   5.635   5.483 -0.0038  0.1677 -0.0073
    8CHOL    R3   56   8.857   5.615   5.612  0.0004  0.0266 -0.0365
    8CHOL    R4   57   8.656   5.601   5.825  0.0310  0.2834  0.0005
    8CHOL    R5   58   8.825   5.738   5.815  0.1393  0.1376 -0.0851
    8CHOL    C1   59   8.903   5.563   6.145  0.0552  0.2184 -0.0224
    8CHOL    C2   60   8.770   5.586   6.570 -0.2976 -0.2294  0.2142
    9PNCE   AM1   61  15.653   8.608   9.525  0.1324 -0.0116  0.0712
    9PNCE   AM2   62  15.948   8.519   9.440 -0.0933  0.0785  0.0516
    9PNCE   T1A   63  15.618   8.851   9.129  0.0520 -0.0456  0.0844
    9PNCE   C2A   64  15.304   8.909   8.817 -0.0813 -0.0631  0.2203
    9PNCE   C3A   65  15.184   8.575   8.570 -0.2881  0.1375 -0.0312
    9PNCE   C1B   66  15.941   8.402   9.130  0.2365  0.2282 -0.1404
    9PNCE   C2B   67  15.954   8.156   8.789 -0.2073  0.0967 -0.3454
    9PNCE   C3B   68  16.260   8.224   8.445 -0.0768 -0.1202  0.4249
    9PNCE   D4B   69  16.601   8.337   8.121 -0.0714  0.2269  0.0521
    9PNCE   C5B   70  16.672   8.023   7.824  0.1616 -0.0863 -0.2714
    9PNCE   C6B   71  16.949   7.956   7.496 -0.0526 -0.3591 -0.0278
   10PNCE   AM1   72  11.495   8.971   8.559  0.2997 -0.0117 -0.1755
   10PNCE   AM2   73  11.094   8.915   8.522 -0.2405  0.3890 -0.0696
   10PNCE   T1A   74  11.791   9.067   8.191  0.1016 -0.0036 -0.1564
   10PNCE   C2A   75  11.581   9.045   7.787 -0.0489  0.0325 -0.0660
   10PNCE   C3A   76  11.585   8.989   7.312 -0.2580 -0.1890  0.0047
   10PNCE   C1B   77  10.953   9.274   8.228 -0.0754 -0.1813  0.1749
   10PNCE   C2B   78  10.753   9.280   7.758 -0.0582 -0.2061 -0.1920
   10PNCE   C3B   79  10.490   9.263   7.465 -0.3905  0.1496  0.0315
   10PNCE   D4B   80  10.588   9.026   7.233  0.1097 -0.3459 -0.0693
   10PNCE   C5B   81  10.591   8.493   7.185  0.1402  0.0185  0.1840
   10PNCE   C6B   82  10.430   8.138   7.189 -0.3004  0.3496 -0.1415
   11XCA    COO   83   9.710   3.862   8.444  0.0666 -0.0500 -0.0306
   11XCA     C1   84   9.680   4.197   8.256 -0.0361  0.1016 -0.0344
   11XCA     C2   85   9.805   4.389   7.939 -0.1531 -0.0008 -0.2565
   11XCA     C3   86   9.816   4.415   7.549  0.0260  0.3727 -0.0777
   11XCA     C4   87  10.109   4.107   7.240  0.2781  0.1073  0.4666
   11XCA     C5   88  10.551   4.012   7.065 -0.2116  0.3377  0.0086
   11XCA     C6   89  10.734   3.613   6.925  0.0460  0.0461 -0.2339
   12CHOL   ROH   90  13.998   1.966   6.090 -0.1089  0.0239 -0.0132
   12CHOL    R1   91  13.885   2.080   6.323 -0.0150  0.0509  0.0185
   12CHOL    R2   92  13.995   2.299   6.450 -0.0094  0.1123 -0.0993
   12CHOL    R3   93  13.745   2.401   6.419 -0.0565  0.0353  0.0135
   12CHOL    R4   94  13.849   2.533   6.659  0.0322  0.1002 -0.0554
   12CHOL    R5   95  13.662   2.424   6.643  0.0525  0.0414  0.0564
   12CHOL    C1   96  13.530   2.765   6.752  0.0123  0.0209  0.0762
   12CHOL    C2   97  13.258   2.824   7.110 -0.3150 -0.1978  0.4216
   13PNCE   AM1   98   9.678  15.110   8.759  0.1660 -0.3761  0.1699
   13PNCE   AM2   99   9.464  15.300   8.573  0.1010  0.2232 -0.2046
   13PNCE   T1A  100   9.457  14.685   8.545  0.2386  0.0275 -0.0201
   13PNCE   C2A  101   9.576  14.300   8.460 -0.2139  0.1209 -0.3374
   13PNCE   C3A  102   9.455  13.883   8.482  0.0351 -0.2728 -0.1498
   13PNCE   C1B  103   9.415  15.047   8.159  0.1896 -0.0142  0.1335
   13PNCE   C2B  104   9.414  15.016   7.741  0.0143  0.2384  0.1922
   13PNCE   C3B  105   9.477  14.846   7.258  0.3176  0.1243  0.0301
   13PNCE   D4B  106   9.426  14.776   6.927 -0.2027 -0.0296 -0.0881
   13PNCE   C5B  107   9.319  14.468   6.725  0.1835  0.5250 -0.0341
   13PNCE   C6B  108   9.424  14.235   6.370  0.1960  0.1905 -0.0811
   14XCA    COO  109   9.691   7.409   8.550  0.0847 -0.2174  0.1440
   14XCA     C1  110   9.433   7.151   8.416  0.0633 -0.1198  0.2031
   14XCA     C2  111   9.090   6.895   8.170 -0.0252 -0.1126  0.1680
   14XCA     C3  112   9.024   6.838   7.809 -0.3613  0.1580  0.1970
   14XCA     C4  113   8.835   6.668   7.451  0.0690 -0.0447 -0.1306
   14XCA     C5  114   8.772   6.343   7.166 -0.0175 -0.1272 -0.0811
   14XCA     C6  115   8.721   5.828   7.069  0.0033 -0.1628 -0.0538
   15CHOL   ROH  116   5.074  11.297   6.976 -0.0752  0.0330 -0.1009
   15CHOL    R1  117   5.248  11.433   6.798 -0.0849  0.2059  0.0197
   15CHOL    R2  118   5.401  11.649   6.876  0.0161  0.0509  0.2557
   15CHOL    R3  119   5.605  11.499   6.776 -0.0678  0.1078 -0.0081
   15CHOL    R4  120   5.727  11.758   6.837  0.0500 -0.0198  0.3341
   15CHOL    R5  121   5.734  11.653   6.646 -0.0392  0.2452  0.1776
   15CHOL    C1  122   6.107  11.681   6.720 -0.0091 -0.0076  0.1323
   15CHOL    C2  123   6.498  11.892   6.475 -0.2026 -0.0839  0.0240
   16PNCE   AM1  124  10.472   8.885   8.461 -0.1561 -0.2756 -0.1884
   16PNCE   AM2  125  10.376   9.197   8.438  0.0009  0.2327 -0.0121
   16PNCE   T1A  126  10.741   8.857   8.086  0.2419 -0.3314 -0.0410
   16PNCE   C2A  127  10.684   8.557   7.712  0.3245 -0.1017 -0.1026
   16PNCE   C3A  128  10.662   8.071   7.647  0.2324 -0.3493  0.0950
   16PNCE   C1B  129  10.301   9.191   8.007  0.2311 -0.0937  0.0503
   16PNCE   C2B  130  10.332   8.907   7.662 -0.0034 -0.0173  0.2441
   16PNCE   C3B  131  10.161   8.826   7.264  0.1118  0.1156  0.0342
   16PNCE   D4B  132  10.144   8.606   7.024 -0.1255  0.0743  0.1844
   16PNCE   C5B  133   9.919   8.595   6.780 -0.0432  0.0754 -0.0906
   16PNCE   C6B  134   9.605   8.266   6.633 -0.0604  0.1694  0.0748
   17XCA    COO  135  13.817   4.641   4.882 -0.2059  0.2253 -0.3222
   17XCA     C1  136  13.534   4.397   5.089  0.3667  0.0149  0.0322
   17XCA     C2  137  13.523   4.461   5.613 -0.2447 -0.1986 -0.1456
   17XCA     C3  138  13.745   4.342   5.947 -0.0842  0.1927  0.2905
   17XCA     C4  139  14.008   4.432   6.230 -0.4022 -0.1842  0.2671
   17XCA     C5  140  14.194   4.266   6.608  0.0948  0.3016  0.4969
   17XCA     C6  141  14.468   3.991   6.851  0.1648  0.1258  0.1422
   18PNCE   AM1  142   8.196  10.575   8.279  0.0620 -0.1814  0.1293
   18PNCE   AM2  143   8.051  10.791   8.052  0.2111 -0.0645  0.0690
   18PNCE   T1A  144   8.347  10.396   7.918  0.1646 -0.1289  0.2985
   18PNCE   C2A  145   8.423  10.427   7.572 -0.2689  0.0379 -0.0139
   18PNCE   C3A  146   8.528  10.537   7.129  0.1874  0.1337 -0.1181
   18PNCE   C1B  147   7.773  10.777   7.622  0.0120  0.0192  0.0575
   18PNCE   C2B  148   7.640  10.922   7.245  0.3557  0.0369 -0.1286
   18PNCE   C3B  149   7.422  11.222   6.985  0.1125  0.1369  0.0722
   18PNCE   D4B  150   7.130  11.103   6.634  0.0380 -0.1530 -0.0023
   18PNCE   C5B  151   6.987  11.404   6.351  0.0415  0.0884  0.1107
   18PNCE   C6B  152   6.998  11.732   6.037  0.0433 -0.0577 -0.1670
   19PNCE   AM1  153  14.283   9.187   8.768 -0.1544  0.2658  0.5296
   19PNCE   AM2  154  14.025   9.376   8.969 -0.0497  0.0284 -0.0652
   19PNCE   T1A  155  14.375   8.972   8.400  0.0035 -0.0463  0.0838
   19PNCE   C2A  156  14.339   8.628   8.123  0.1714 -0.0041  0.0070
   19PNCE   C3A  157  14.036   8.358   8.009  0.0946 -0.1903 -0.1051
   19PNCE   C1B  158  13.851   9.744   8.856 -0.0019 -0.1664  0.1681
   19PNCE   C2B  159  14.133   9.865   8.521 -0.2985  0.0003  0.0457
   19PNCE   C3B  160  14.121   9.882   8.139 -0.0193 -0.0228  0.2052
   19PNCE   D4B  161  14.014   9.546   7.886  0.0980 -0.0500  0.3212
   19PNCE   C5B  162  14.410   9.416   7.777 -0.1257  0.0782 -0.0868
   19PNCE   C6B  163  14.584   8.976   7.777 -0.1406  0.4613  0.3038
   20PNCE   AM1  164  11.551  10.436   8.000  0.1679 -0.2745 -0.2545
   20PNCE   AM2  165  11.649  10.192   8.308  0.0186  0.2597 -0.0679
   20PNCE   T1A  166  11.489  10.701   7.555 -0.2548 -0.3039 -0.0201
   20PNCE   C2A  167  11.621  10.755   7.104  0.0983  0.1729  0.2661
   20PNCE   C3A  168  11.730  10.388   6.823  0.1088  0.1096  0.1199
   20PNCE   C1B  169  11.729  10.074   7.777 -0.0927 -0.0175  0.2136
   20PNCE   C2B  170  11.842   9.759   7.491  0.1082  0.1912 -0.1957
   20PNCE   C3B  171  11.789   9.476   7.112  0.1299 -0.0442 -0.0459
   20PNCE   D4B  172  11.987   9.598   6.709  0.0717  0.0764 -0.3402
   20PNCE   C5B  173  12.167   9.321   6.408 -0.1644  0.2478 -0.1043
   20PNCE   C6B  174  12.294   9.132   6.019 -0.1635  0.1309 -0.1747
   21XCA    COO  175  14.128  15.614   8.560 -0.2893  0.2061 -0.1995
   21XCA     C1  176  14.271  15.341   8.321  0.2348  0.2478  0.0765
   21XCA     C2  177  14.174  15.308   7.783 -0.3240  0.3343  0.0111
   21XCA     C3  178  14.378  15.381   7.412 -0.2689 -0.3689  0.3177
   21XCA     C4  179  14.336  15.383   7.038 -0.4312 -0.1582  0.2746
   21XCA     C5  180  14.522  15.212   6.531 -0.1379 -0.3460  0.0855
   21XCA     C6  181  14.796  15.053   6.203 -0.1201  0.1454 -0.0831
   22PNCE   AM1  182   4.333  13.171   8.828  0.0330  0.2006  0.3327
   22PNCE   AM2  183   4.482  12.933   8.583 -0.0096 -0.2103 -0.2214
   22PNCE   T1A  184   4.453  13.637   8.499 -0.3368 -0.1848 -0.1855
   22PNCE   C2A  185   4.696  13.814   8.099 -0.0143 -0.0752  0.0742
   22PNCE   C3A  186   4.850  14.175   8.007 -0.2394  0.1137 -0.0188
   22PNCE   C1B  187   4.131  12.776   8.305  0.1605 -0.2431 -0.4462
   22PNCE   C2B  188   4.215  12.748   7.848 -0.2577  0.0599  0.1770
   22PNCE   C3B  189   4.296  12.892   7.462 -0.1058  0.0542 -0.1914
   22PNCE   D4B  190   4.662  12.892   7.180 -0.1544  0.0561  0.1490
   22PNCE   C5B  191   4.906  12.622   7.303 -0.0716  0.2228  0.0174
   22PNCE   C6B  192   5.248  12.543   7.568 -0.1401  0.2517 -0.3107
   23PNCE   AM1  193  15.283   0.455   8.687 -0.0359  0.0142 -0.2726
   23PNCE   AM2  194  14.860   0.501   8.537  0.1734  0.0981  0.0102
   23PNCE   T1A  195  15.305   0.305   8.308 -0.1206  0.1181  0.1415
   23PNCE   C2A  196  15.409   0.331   7.891 -0.0238 -0.0385  0.3158
   23PNCE   C3A  197  15.508   0.502   7.444 -0.0686 -0.1851 -0.1532
   23PNCE   C1B  198  14.896   0.996   8.424 -0.3060 -0.2654 -0.0066
   23PNCE   C2B  199  15.237   1.255   8.339  0.0222 -0.2070 -0.2825
   23PNCE   C3B  200  15.645   1.285   8.175  0.3057 -0.4208  0.0492
   23PNCE   D4B  201  15.747   1.235   7.838 -0.1795 -0.2419  0.1043
   23PNCE   C5B  202  15.492   1.201   7.517 -0.1649  0.1094  0.0729
   23PNCE   C6B  203  15.310   1.011   7.149 -0.0425  0.1682  0.0757
   24PNCE   AM1  204  15.662   7.682   9.357 -0.1100  0.0218 -0.0330
   24PNCE   AM2  205  15.968   7.667   9.259 -0.0274 -0.0091 -0.1042
   24PNCE   T1A  206  15.283   7.854   9.511 -0.0743 -0.2611 -0.3730
   24PNCE   C2A  207  14.942   8.049   9.424  0.2292 -0.1334 -0.1292
   24PNCE   C3A  208  14.867   8.338   9.047  0.2581 -0.1231 -0.0818
   24PNCE   C1B  209  16.146   7.662   8.888 -0.1975 -0.0991 -0.1143
   24PNCE   C2B  210  16.112   7.647   8.420  0.2376  0.1358  0.0170
   24PNCE   C3B  211  16.308   7.812   8.045 -0.2365  0.1762 -0.0950
   24PNCE   D4B  212  16.205   7.956   7.556  0.0172 -0.1275  0.0712
   24PNCE   C5B  213  15.893   7.690   7.407  0.2584  0.0309 -0.2557
   24PNCE   C6B  214  15.527   7.662   7.269  0.0437 -0.2660 -0.1156
   25XCA    COO  215   3.318   3.736   4.888  0.0869 -0.0061  0.0176
   25XCA     C1  216   3.611   3.776   5.273  0.4291  0.0002  0.1929
   25XCA     C2  217   3.436   3.722   5.665  0.3030  0.1650 -0.0909
   25XCA     C3  218   3.312   3.436   5.940 -0.3174  0.0666 -0.1322
   25XCA     C4  219   3.215   3.474   6.351  0.0069  0.1094 -0.2230
   25XCA     C5  220   3.015   3.277   6.718 -0.2417 -0.2160  0.1432
   25XCA     C6  221   2.998   3.295   7.133  0.2115  0.2462 -0.2654
   26CHOL   ROH  222   0.497   4.562   8.388 -0.3150 -0.2805  0.1465
   26CHOL    R1  223   0.537   4.459   8.127 -0.2709 -0.1921  0.1188
   26CHOL    R2  224   0.355   4.290   8.004 -0.3909  0.0843 -0.0814
   26CHOL    R3  225   0.365   4.477   7.807 -0.0485  0.1739  0.0116
   26CHOL    R4  226   0.381   4.219   7.667 -0.4657  0.1934 -0.1113
   26CHOL    R5  227   0.520   4.386   7.648 -0.1706 -0.0204 -0.0086
   26CHOL    C1  228   0.406   4.353   7.285 -0.1877  0.3410 -0.0415
   26CHOL    C2  229   0.338   4.059   7.219  0.1468 -0.1020  0.1508
   27PNCE   AM1  230   5.872   6.518   9.034  0.2248  0.0209 -0.1174
   27PNCE   AM2  231   6.169   6.753   8.942  0.3564 -0.0513 -0.0103
   27PNCE   T1A  232   5.672   6.287   8.696 -0.0626 -0.0134  0.2172
   27PNCE   C2A  233   5.506   6.220   8.282  0.0074  0.1883 -0.3585
   27PNCE   C3A  234   5.447   5.933   7.826 -0.2699  0.0383  0.4499
   27PNCE   C1B  235   6.355   6.755   8.505 -0.0905 -0.3120 -0.1075
   27PNCE   C2B  236   6.204   6.829   8.004  0.4155 -0.2464  0.2868
   27PNCE   C3B  237   6.273   6.680   7.553  0.2174  0.1831 -0.1496
   27PNCE   D4B  238   6.162   6.668   7.064  0.0767  0.0011 -0.0613
   27PNCE   C5B  239   5.777   6.403   6.965  0.1190 -0.2416  0.4378
   27PNCE   C6B  240   5.405   6.352   6.659  0.1068 -0.0666 -0.2087
   28CHOL   ROH  241   6.978  11.217   5.525 -0.0173 -0.2292 -0.0331
   28CHOL    R1  242   6.897  11.382   5.740  0.1654 -0.2161  0.0258
   28CHOL    R2  243   6.641  11.484   5.763  0.3060  0.1564 -0.0019
   28CHOL    R3  244   6.652  11.367   6.008  0.0589  0.0142 -0.0553
   28CHOL    R4  245   6.403  11.522   6.011  0.1914  0.2343 -0.1220
   28CHOL    R5  246   6.564  11.532   6.157  0.1174  0.0143 -0.0192
   28CHOL    C1  247   6.274  11.434   6.385 -0.1075  0.1462 -0.2422
   28CHOL    C2  248   6.066  11.682   6.248  0.2829 -0.2494  0.0776
   29PNCE   AM1  249  15.044  15.687   8.342 -0.2606 -0.4511  0.4013
   29PNCE   AM2  250  15.231  15.419   8.224  0.0288 -0.2571 -0.2622
   29PNCE   T1A  251  15.478  15.794   8.126 -0.3336  0.3672 -0.0814
   29PNCE   C2A  252  15.825  15.782   7.820 -0.0118  0.3110  0.2196
   29PNCE   C3A  253  16.094  15.922   7.557  0.0225  0.1635 -0.0931
   29PNCE   C1B  254  15.114  15.618   7.863  0.2215 -0.1234 -0.0918
   29PNCE   C2B  255  15.214  15.521   7.458  0.2550  0.2875 -0.0236
   29PNCE   C3B  256  15.304  15.658   6.979  0.0632 -0.2662  0.0565
   29PNCE   D4B  257  15.643  15.664   6.823 -0.2540  0.2917 -0.0024
   29PNCE   C5B  258  15.575  15.556   6.423 -0.4880  0.0062  0.0838
   29PNCE   C6B  259  15.376  15.777   6.011  0.0793  0.0073 -0.2667
   30XCA    COO  260   3.192   5.141   9.014  0.0429 -0.6227  0.0493
   30XCA     C1  261   3.172   5.225   8.516  0.0368 -0.0574  0.2183
   30XCA     C2  262   3.151   5.293   8.114 -0.3501 -0.1980  0.1967
   30XCA     C3  263   3.313   5.572   7.822  0.0964 -0.2183  0.0799
   30XCA     C4  264   3.226   5.840   7.428 -0.0563  0.1428 -0.0898
   30XCA     C5  265   2.927   6.139   7.261  0.1858  0.1082  0.0100
   30XCA     C6  266   2.561   6.156   7.335  0.0519 -0.0617  0.2843
   31PNCE   AM1  267   2.738   2.287   8.656 -0.0955  0.3750  0.0953
   31PNCE   AM2  268   2.520   2.369   8.498  0.0858  0.1106  0.0090
   31PNCE   T1A  269   2.911   2.089   8.316  0.1400 -0.0462 -0.5328
   31PNCE   C2A  270   3.010   1.951   7.880  0.2438  0.2480  0.2515
   31PNCE   C3A  271   3.130   1.750   7.421 -0.2058 -0.0265  0.0385
   31PNCE   C1B  272   2.477   2.319   8.120  0.0267  0.0833  0.0287
   31PNCE   C2B  273   2.543   2.265   7.674 -0.3968  0.2311  0.3299
   31PNCE   C3B  274   2.781   2.208   7.284  0.0324  0.0825  0.3091
   31PNCE   D4B  275   2.642   2.296   6.927 -0.0313  0.0684  0.1585
   31PNCE   C5B  276   2.828   2.103   6.651  0.0003  0.1217  0.1266
   31PNCE   C6B  277   3.150   1.755   6.593 -0.2461  0.1365 -0.0426
   32XCA    COO  278   8.043   5.851   9.231  0.1180  0.2784 -0.0262
   32XCA     C1  279   7.870   5.616   8.801  0.0402  0.0585 -0.0357
   32XCA     C2  280   7.745   5.546   8.348 -0.2068 -0.0574 -0.0051
   32XCA     C3  281   7.760   5.570   8.025  0.0160 -0.0413 -0.2792
   32XCA     C4  282   7.985   5.408   7.622 -0.1400 -0.3919  0.1775
   32XCA     C5  283   8.146   5.048   7.479 -0.2122  0.2406 -0.1724
   32XCA     C6  284   8.537   4.952   7.354 -0.2266  0.0354  0.1146
   33CHOL   ROH  285  10.631   7.237   8.086 -0.0852 -0.0948  0.0766
   33CHOL    R1  286  10.685   7.417   7.875 -0.1003 -0.0501  0.1105
   33CHOL    R2  287  10.910   7.397   7.716 -0.0745  0.0262  0.1347
   33CHOL    R3  288  10.728   7.396   7.514 -0.0501  0.0134  0.1132
   33CHOL    R4  289  10.982   7.468   7.386 -0.0553  0.0936  0.1534
   33CHOL    R5  290  10.794   7.579   7.374 -0.0791  0.0495  0.1484
   33CHOL    C1  291  10.853   7.509   7.004 -0.0213  0.1209  0.1440
   33CHOL    C2  292  10.835   7.462   6.657  0.1207  0.2669  0.0081
   34PNCE   AM1  293   8.773  13.356   8.614 -0.1017  0.2449  0.0577
   34PNCE   AM2  294   8.681  13.108   8.696  0.2700  0.2947 -0.0075
   34PNCE   T1A  295   8.577  13.517   8.251  0.0520  0.1129  0.1462
   34PNCE   C2A  296   8.321  13.460   7.916 -0.0670 -0.2473 -0.1155
   34PNCE   C3A  297   7.974  13.520   7.654 -0.2416 -0.1744 -0.0446
   34PNCE   C1B  298   8.655  13.036   8.232  0.1852 -0.0736  0.2112
   34PNCE   C2B  299   8.728  13.267   7.828 -0.0571  0.0720  0.0249
   34PNCE   C3B  300   8.878  13.161   7.475 -0.2390 -0.0481 -0.2470
   34PNCE   D4B  301   9.028  13.226   7.141 -0.1273  0.0544  0.0974
   34PNCE   C5B  302   8.622  12.981   7.085 -0.1143  0.6047  0.1325
   34PNCE   C6B  303   8.319  12.548   7.108  0.0569  0.2749  0.0540
   35PNCE   AM1  304   5.413   1.973   8.337 -0.0021 -0.0067  0.0949
   35PNCE   AM2  305   5.438   1.634   8.254 -0.1486  0.0164 -0.4094
   35PNCE   T1A  306   5.497   2.070   7.993  0.1405 -0.0125  0.1114
   35PNCE   C2A  307   5.340   2.373   7.776 -0.0567 -0.2329 -0.0431
   35PNCE   C3A  308   5.051   2.453   7.432  0.1724 -0.2803 -0.0053
   35PNCE   C1B  309   5.154   1.380   8.120 -0.0166 -0.1843  0.0634
   35PNCE   C2B  310   5.132   1.276   7.668  0.0529 -0.1320  0.0981
   35PNCE   C3B  311   4.911   1.157   7.283 -0.0007 -0.0193 -0.1033
   35PNCE   D4B  312   4.859   1.062   6.788  0.1241  0.0854  0.0044
   35PNCE   C5B  313   4.756   0.681   6.668 -0.1771 -0.1103 -0.0784
   35PNCE   C6B  314   4.571   0.367   6.594  0.2868 -0.0066 -0.0981
   36PNCE   AM1  315  15.021  10.715   8.957 -0.3517 -0.1972 -0.1704
   36PNCE   AM2  316  15.154  10.681   9.243 -0.0376 -0.1706  0.1341
   36PNCE   T1A  317  15.166  10.480   8.592 -0.1961  0.0849  0.3641
   36PNCE   C2A  318  15.074  10.405   8.156 -0.0122  0.3508  0.1102
   36PNCE   C3A  319  14.853  10.300   7.852 -0.1735 -0.2881  0.1429
   36PNCE   C1B  320  15.473  10.523   8.980 -0.1534  0.0299  0.2888
   36PNCE   C2B  321  15.858  10.226   8.834 -0.0354 -0.4368  0.1063
   36PNCE   C3B  322  15.861   9.790   8.626  0.0827 -0.0390  0.2996
   36PNCE   D4B  323  15.952   9.297   8.642  0.1598 -0.3873  0.2548
   36PNCE   C5B  324  15.641   8.967   8.387 -0.3761  0.0186 -0.3333
   36PNCE   C6B  325  15.575   9.189   8.079  0.2108 -0.2006  0.3974
   37XCA    COO  326   9.959   0.327   4.132 -0.1730 -0.3337 -0.0552
   37XCA     C1  327   9.944  -0.187   4.194  0.0160  0.1457 -0.0278
   37XCA     C2  328  10.187  -0.570   4.172  0.1537  0.1345 -0.0321
   37XCA     C3  329  10.469  -0.748   4.442  0.0489  0.0252  0.1871
   37XCA     C4  330  10.915  -0.928   4.460  0.1057  0.3286 -0.3135
   37XCA     C5  331  11.222  -0.784   4.722  0.2828 -0.1565  0.1951
   37XCA     C6  332  11.289  -0.766   5.158 -0.0037  0.0101  0.2658
   38CHOL   ROH  333  11.203   9.217   6.505  0.1118  0.0334 -0.1029
   38CHOL    R1  334  11.181   9.487   6.587 -0.0839  0.0014 -0.0448
   38CHOL    R2  335  10.937   9.608   6.637 -0.1631 -0.2642  0.2501
   38CHOL    R3  336  11.052   9.665   6.877  0.0541 -0.1764  0.1286
   38CHOL    R4  337  10.833   9.859   6.851  0.0775 -0.1395  0.2241
   38CHOL    R5  338  11.043   9.904   6.892  0.1234 -0.1677  0.0257
   38CHOL    C1  339  10.880  10.059   7.200  0.4216  0.0154  0.0949
   38CHOL    C2  340  10.621  10.236   7.419 -0.0717  0.3381  0.0861
   39PNCE   AM1  341   7.717   0.845   8.264 -0.0558 -0.0741  0.2709
   39PNCE   AM2  342   7.403   1.022   8.281 -0.3133 -0.0090  0.0810
   39PNCE   T1A  343   7.670   0.679   7.768  0.0278 -0.0220  0.0345
   39PNCE   C2A  344   7.804   0.604   7.387 -0.0244 -0.0916  0.0483
   39PNCE   C3A  345   7.783   0.606   7.079 -0.3258  0.0632  0.1542
   39PNCE   C1B  346   7.549   1.127   7.813  0.0158 -0.1532 -0.1573
   39PNCE   C2B  347   7.559   1.067   7.299  0.1716 -0.0408  0.0212
   39PNCE   C3B  348   7.442   0.938   6.875 -0.3682 -0.0135 -0.1540
   39PNCE   D4B  349   7.399   0.984   6.508  0.3887  0.1800 -0.2377
   39PNCE   C5B  350   7.727   1.075   6.269  0.0945 -0.0510 -0.2314
   39PNCE   C6B  351   7.877   1.268   5.882  0.1216  0.1100 -0.2336
   40PNCE   AM1  352   1.878   8.970   9.473  0.3161  0.1616 -0.0971
   40PNCE   AM2  353   1.990   8.684   9.715 -0.1816 -0.2474  0.1987
   40PNCE   T1A  354   1.964   8.841   9.090  0.2073  0.0812 -0.3570
   40PNCE   C2A  355   1.955   9.007   8.695 -0.0365 -0.3374 -0.0669
   40PNCE   C3A  356   1.876   9.235   8.428  0.0530  0.2363 -0.0326
   40PNCE   C1B  357   2.025   8.149   9.505 -0.0674 -0.0004  0.0119
   40PNCE   C2B  358   2.059   7.850   9.163 -0.0138 -0.1234  0.0858
   40PNCE   C3B  359   2.120   7.898   8.805 -0.3210 -0.1180 -0.0935
   40PNCE   D4B  360   1.935   7.685   8.360  0.1218  0.1963 -0.0871
   40PNCE   C5B  361   1.473   7.660   8.357 -0.0135 -0.0544 -0.2999
   40PNCE   C6B  362   1.072   7.837   8.331 -0.0728 -0.2690 -0.0629
   41CHOL   ROH  363   1.882  11.992   6.140 -0.0338  0.0292 -0.0523
   41CHOL    R1  364   1.787  12.257   6.167 -0.3735 -0.1060  0.1490
   41CHOL    R2  365   1.697  12.360   6.406  0.2993 -0.1509  0.4438
   41CHOL    R3  366   1.880  12.554   6.356 -0.1601  0.1274 -0.3080
   41CHOL    R4  367   1.679  12.682   6.529  0.4075 -0.2395  0.7016
   41CHOL    R5  368   1.749  12.754   6.334 -0.5612 -0.0305  0.3806
   41CHOL    C1  369   1.841  13.053   6.552  0.0393 -0.0300  0.1460
   41CHOL    C2  370   1.792  13.407   6.702 -0.1106  0.1302  0.0079
   42PNCE   AM1  371   9.880   1.084   8.910 -0.2659  0.2409  0.0347
   42PNCE   AM2  372  10.048   1.269   8.937  0.1005  0.1279 -0.0523
   42PNCE   T1A  373   9.632   0.874   8.538  0.0450  0.1735 -0.2116
   42PNCE   C2A  374   9.317   0.890   8.325 -0.0275  0.0521  0.2486
   42PNCE   C3A  375   9.214   1.033   7.977  0.3528 -0.1597 -0.2401
   42PNCE   C1B  376   9.972   1.239   8.430 -0.0160  0.1862 -0.1846
   42PNCE   C2B  377  10.058   1.277   7.924 -0.0458  0.0334 -0.0055
   42PNCE   C3B  378  10.099   1.650   7.676 -0.0628 -0.1099 -0.2594
   42PNCE   D4B  379  10.099   1.946   7.273 -0.1509  0.1158  0.0243
   42PNCE   C5B  380  10.321   2.423   7.345  0.4632  0.3291  0.1743
   42PNCE   C6B  381  10.580   2.801   7.391 -0.3070  0.1310  0.0350
   43PNCE   AM1  382   4.375  11.423   9.049 -0.0108 -0.0247 -0.0535
   43PNCE   AM2  383   4.454  11.030   8.981  0.2142  0.0758 -0.3151
   43PNCE   T1A  384   4.397  11.513   8.582  0.0119  0.2568  0.2175
   43PNCE   C2A  385   4.391  11.350   8.166 -0.0653  0.3085  0.1210
   43PNCE   C3A  386   4.645  11.128   7.842 -0.0791  0.2600  0.2649
   43PNCE   C1B  387   4.343  11.035   8.571 -0.0101  0.0988 -0.0473
   43PNCE   C2B  388   4.328  10.842   8.176  0.3476  0.2805  0.1985
   43PNCE   C3B  389   4.393  10.530   7.888  0.3880  0.2768  0.1067
   43PNCE   D4B  390   4.723  10.272   7.754 -0.0485  0.2418  0.0199
   43PNCE   C5B  391   4.800   9.960   7.322  0.2961  0.1464 -0.2050
   43PNCE   C6B  392   4.922   9.755   6.920 -0.0924 -0.1118 -0.1216
   44XCA    COO  393   6.721   3.584   7.817  0.2204 -0.0085 -0.0939
   44XCA     C1  394   6.872   4.097   7.679 -0.4398  0.2299 -0.5221
   44XCA     C2  395   6.883   4.302   7.323  0.0963 -0.1525  0.0944
   44XCA     C3  396   6.869   4.476   6.918  0.0221  0.0345 -0.3340
   44XCA     C4  397   7.035   4.720   6.515 -0.3250 -0.2748  0.0327
   44XCA     C5  398   6.863   4.990   6.285 -0.3464  0.0391  0.0909
   44XCA     C6  399   6.835   5.171   5.791  0.0140 -0.1191 -0.3802
   45CHOL   ROH  400  10.028   3.087   8.123 -0.1361 -0.1139  0.0508
   45CHOL    R1  401   9.804   3.171   7.972 -0.1196 -0.1787 -0.0121
   45CHOL    R2  402   9.796   3.414   7.840 -0.1738 -0.1558  0.0250
   45CHOL    R3  403   9.737   3.259   7.625 -0.0334 -0.1464 -0.0198
   45CHOL    R4  404   9.598   3.512   7.574 -0.1393 -0.2086 -0.0188
   45CHOL    R5  405   9.510   3.313   7.573 -0.0418 -0.2491 -0.0809
   45CHOL    C1  406   9.428   3.422   7.217  0.0124 -0.2305 -0.0864
   45CHOL    C2  407   9.461   3.697   6.945  0.1181 -0.2873 -0.1863
   46CHOL   ROH  408   6.739  15.696   4.945 -0.1583 -0.0193  0.1012
   46CHOL    R1  409   6.951  15.864   5.026 -0.0881 -0.0836  0.0515
   46CHOL    R2  410   7.027  16.088   4.882 -0.1172 -0.0529  0.0854
   46CHOL    R3  411   6.991  16.213   5.120  0.0221 -0.1199  0.1428
   46CHOL    R4  412   7.165  16.393   4.967 -0.0438 -0.0896  0.0987
   46CHOL    R5  413   7.203  16.314   5.167  0.0579 -0.1522  0.0568
   46CHOL    C1  414   7.211  16.688   5.241  0.1297 -0.1739  0.1603
   46CHOL    C2  415   7.183  16.839   5.577 -0.1078  0.1627 -0.3428
   47XCA    COO  416  13.200   6.617   9.106  0.1887 -0.2541  0.2394
   47XCA     C1  417  13.519   6.488   8.724 -0.0528 -0.4848 -0.1033
   47XCA     C2  418  13.311   6.300   8.300  0.2089  0.2467  0.0033
   47XCA     C3  419  13.547   6.344   7.968 -0.2309 -0.2314  0.0708
   47XCA     C4  420  13.990   6.562   7.835 -0.2579 -0.1094 -0.1903
   47XCA     C5  421  14.342   6.646   7.526 -0.0988 -0.2881 -0.2020
   47XCA     C6  422  14.577   7.050   7.528 -0.0640  0.2214 -0.1437
   48CHOL   ROH  423   2.757  15.491   8.538 -0.2731 -0.2493 -0.1411
   48CHOL    R1  424   2.840  15.551   8.274 -0.1104 -0.3049 -0.1043
   48CHOL    R2  425   2.814  15.371   8.066 -0.3934 -0.1931 -0.1720
   48CHOL    R3  426   2.682  15.577   7.947 -0.0040  0.0921 -0.1287
   48CHOL    R4  427   2.829  15.447   7.729 -0.3405 -0.2231 -0.1761
   48CHOL    R5  428   2.835  15.658   7.782  0.1209 -0.2276 -0.1774
   48CHOL    C1  429   2.713  15.685   7.422  0.0559  0.0272 -0.1379
   48CHOL    C2  430   2.604  15.568   7.084 -0.0932  0.0582  0.0815
   49PNCE   AM1  431   8.327   8.276   8.757  0.0919  0.1594  0.0006
   49PNCE   AM2  432   8.333   7.854   8.736 -0.3398  0.2590  0.0342
   49PNCE   T1A  433   8.049   8.096   8.400 -0.0731  0.1586  0.0866
   49PNCE   C2A  434   7.863   8.117   7.985 -0.0029  0.0622 -0.0319
   49PNCE   C3A  435   7.691   7.984   7.683 -0.1431 -0.1620 -0.4120
   49PNCE   C1B  436   8.127   7.605   8.404 -0.1193 -0.0911 -0.2742
   49PNCE   C2B  437   8.060   7.266   8.231 -0.1637 -0.0599  0.0833
   49PNCE   C3B  438   8.150   7.257   7.784 -0.0810  0.0771 -0.0476
   49PNCE   D4B  439   8.057   7.293   7.394 -0.2004 -0.3116  0.2126
   49PNCE   C5B  440   8.495   7.275   7.114 -0.0371  0.1447 -0.0757
   49PNCE   C6B  441   8.923   7.490   7.198 -0.1489  0.1883 -0.0883
   50PNCE   AM1  442   0.438  12.382   8.710 -0.1976  0.1823 -0.1014
   50PNCE   AM2  443   0.206  12.111   8.914  0.2029  0.0503 -0.1315
   50PNCE   T1A  444   0.434  12.045   8.347 -0.0485 -0.0668  0.1897
   50PNCE   C2A  445   0.590  11.792   8.034  0.2399  0.0818  0.0354
   50PNCE   C3A  446   0.833  11.549   7.790  0.2155  0.2163  0.1671
   50PNCE   C1B  447   0.035  11.781   8.724 -0.0770 -0.1920  0.1533
   50PNCE   C2B  448   0.031  11.681   8.335 -0.1274  0.2218 -0.0356
   50PNCE   C3B  449   0.173  11.544   7.977 -0.1280 -0.3410  0.2037
   50PNCE   D4B  450   0.415  11.599   7.531  0.1372 -0.3401 -0.0122
   50PNCE   C5B  451   0.773  11.626   7.292  0.2128  0.0200 -0.0411
   50PNCE   C6B  452   0.751  11.610   6.856  0.0826 -0.3991  0.0841
   51CHOL   ROH  453   8.576  10.851   8.054 -0.0604  0.1083  0.0497
   51CHOL    R1  454   8.539  10.843   7.774 -0.1914 -0.0373  0.0696
   51CHOL    R2  455   8.308  10.934   7.651 -0.1522  0.1259  0.1141
   51CHOL    R3  456   8.483  11.085   7.507 -0.0528 -0.1491 -0.0633
   51CHOL    R4  457   8.282  10.997   7.313 -0.2685 -0.0191  0.0949
   51CHOL    R5  458   8.498  10.973   7.296 -0.3016 -0.2793 -0.0167
   51CHOL    C1  459   8.430  11.176   6.980 -0.2429 -0.3617 -0.0828
   51CHOL    C2  460   8.580  11.402   6.806  0.0885 -0.3172  0.1929
   52PNCE   AM1  461  11.283   9.456   8.548  0.1704 -0.4130 -0.1409
   52PNCE   AM2  462  11.165   9.820   8.370  0.2024 -0.1005 -0.0265
   52PNCE   T1A  463  11.359   9.421   8.004  0.0895 -0.2074 -0.0070
   52PNCE   C2A  464  11.382   9.436   7.596  0.2360 -0.1465  0.0125
   52PNCE   C3A  465  11.407   9.765   7.299 -0.0279  0.1995 -0.0962
   52PNCE   C1B  466  11.255   9.906   7.952 -0.0024  0.1689  0.2573
   52PNCE   C2B  467  11.227  10.239   7.559  0.0257  0.0457 -0.0015
   52PNCE   C3B  468  11.292  10.282   7.092  0.0188 -0.0597  0.0741
   52PNCE   D4B  469  11.245  10.313   6.628  0.0281 -0.0134 -0.2823
   52PNCE   C5B  470  11.005  10.606   6.368  0.1014 -0.0415  0.1909
   52PNCE   C6B  471  10.806  10.341   6.101  0.3488  0.2231  0.3812
   53PNCE   AM1  472  12.847   7.035   9.321 -0.0011  0.1006  0.0553
   53PNCE   AM2  473  12.798   6.980   9.032 -0.2213 -0.0140 -0.3315
   53PNCE   T1A  474  13.276   6.991   9.437  0.0075  0.4400  0.0586
   53PNCE   C2A  475  13.548   6.874   9.677 -0.3018 -0.1627  0.0764
   53PNCE   C3A  476  13.585   6.491   9.963  0.0660 -0.1083 -0.1684
   53PNCE   C1B  477  13.106   6.800   8.607  0.2099 -0.0816  0.4074
   53PNCE   C2B  478  13.443   6.820   8.309 -0.0601  0.0463  0.2129
   53PNCE   C3B  479  13.527   6.871   7.917  0.0786 -0.1588  0.0058
   53PNCE   D4B  480  13.691   6.974   7.549 -0.0859  0.1693 -0.0225
   53PNCE   C5B  481  14.027   6.814   7.219  0.0110  0.3871 -0.1516
   53PNCE   C6B  482  14.320   6.510   7.033  0.0555  0.1040  0.1453
   54CHOL   ROH  483  13.595   8.867   5.221 -0.0163  0.0005  0.0722
   54CHOL    R1  484  13.718   8.967   5.456  0.1830 -0.1152  0.0192
   54CHOL    R2  485  13.606   8.937   5.706  0.1942  0.1105  0.0509
   54CHOL    R3  486  13.847   8.828   5.766  0.0544 -0.2251  0.0246
   54CHOL    R4  487  13.714   8.863   6.026  0.1854  0.0998  0.0520
   54CHOL    R5  488  13.912   8.936   5.970  0.2824 -0.2216 -0.0471
   54CHOL    C1  489  14.005   8.717   6.268  0.0492 -0.2214  0.0280
   54CHOL    C2  490  13.884   8.580   6.574 -0.0384  0.1539 -0.0967
   55XCA    COO  491  11.475   2.425   8.605 -0.3455  0.1687 -0.1248
   55XCA     C1  492  11.567   2.133   8.237  0.2463 -0.1732  0.0004
   55XCA     C2  493  11.803   1.944   7.948 -0.4350 -0.1793 -0.2100
   55XCA     C3  494  11.991   1.584   7.708 -0.4420  0.1050 -0.1340
   55XCA     C4  495  12.147   1.641   7.226  0.0467 -0.1085 -0.1503
   55XCA     C5  496  12.091   1.864   6.872 -0.0306  0.2570  0.2468
   55XCA     C6  497  11.829   1.874   6.544 -0.2571  0.4305 -0.1549
   56XCA    COO  498  12.592  14.356   8.412  0.1951 -0.1283 -0.0873
   56XCA     C1  499  12.600  14.561   7.943  0.1587 -0.0285  0.0790
   56XCA     C2  500  12.535  14.670   7.489 -0.4500  0.2422 -0.0288
   56XCA     C3  501  12.650  14.744   7.165 -0.3634 -0.0072  0.4094
   56XCA     C4  502  12.830  14.573   6.670 -0.1220  0.2485  0.0002
   56XCA     C5  503  13.097  14.512   6.288  0.0893 -0.1457 -0.2637
   56XCA     C6  504  13.145  14.685   5.849 -0.1298  0.1078 -0.1546
   57CHOL   ROH  505   4.797   5.324   5.653  0.2647  0.2498  0.0618
   57CHOL    R1  506   4.888   5.240   5.908  0.0356  0.1863  0.1256
   57CHOL    R2  507   4.815   5.368   6.141 -0.0474  0.2284  0.0782
   57CHOL    R3  508   4.738   5.118   6.216 -0.2576  0.2743  0.0198
   57CHOL    R4  509   4.774   5.263   6.468  0.0886  0.1206  0.0617
   57CHOL    R5  510   4.865   5.073   6.413 -0.1544  0.0463 -0.0963
   57CHOL    C1  511   4.677   4.968   6.728 -0.0296  0.1010 -0.0029
   57CHOL    C2  512   4.869   4.855   7.085 -0.1672  0.1810  0.0821
   58CHOL   ROH  513  15.768   0.720   8.579 -0.1505  0.2588  0.1668
   58CHOL    R1  514  15.662   0.850   8.352 -0.1879  0.1758  0.1350
   58CHOL    R2  515  15.737   0.784   8.094  0.1040  0.3744  0.1579
   58CHOL    R3  516  15.469   0.754   8.058  0.1675 -0.0286 -0.0373
   58CHOL    R4  517  15.569   0.841   7.797  0.1948  0.3500  0.1024
   58CHOL    R5  518  15.408   0.933   7.911 -0.0289 -0.0037  0.0772
   58CHOL    C1  519  15.220   0.847   7.591  0.3074 -0.0425 -0.1131
   58CHOL    C2  520  14.956   0.621   7.410 -0.1508  0.1020 -0.0410
   59CHOL   ROH  521   6.670   6.923   5.198  0.0047  0.1135 -0.0668
   59CHOL    R1  522   6.592   6.709   5.366 -0.2257  0.1714 -0.0971
   59CHOL    R2  523   6.761   6.600   5.555 -0.2847 -0.1438 -0.2232
   59CHOL    R3  524   6.555   6.655   5.724 -0.1168  0.1093 -0.0945
   59CHOL    R4  525   6.724   6.466   5.872 -0.2549 -0.1066 -0.2036
   59CHOL    R5  526   6.510   6.446   5.833 -0.3082  0.1582 -0.0734
   59CHOL    C1  527   6.510   6.439   6.215 -0.0799  0.1526 -0.0715
   59CHOL    C2  528   6.613   6.097   6.416 -0.2385  0.0119  0.2996
   60PNCE   AM1  529   3.794   1.749   8.646  0.1747  0.0060 -0.1295
   60PNCE   AM2  530   3.791   2.092   8.690 -0.0533  0.0304 -0.0949
   60PNCE   T1A  531   3.642   1.379   8.464 -0.2869 -0.2290  0.0688
   60PNCE   C2A  532   3.342   1.136   8.289 -0.0026 -0.0837  0.1118
   60PNCE   C3A  533   2.945   1.064   8.271  0.0941 -0.0804 -0.1509
   60PNCE   C1B  534   3.924   2.078   8.272 -0.0500 -0.1687 -0.5176
   60PNCE   C2B  535   3.932   2.133   7.762 -0.1886  0.1692  0.1243
   60PNCE   C3B  536   4.010   2.284   7.382 -0.1971 -0.0412  0.1120
   60PNCE   D4B  537   4.211   2.585   6.959 -0.0050  0.2144  0.1358
   60PNCE   C5B  538   4.657   2.624   6.915 -0.2907 -0.1237  0.0288
   60PNCE   C6B  539   5.028   2.516   6.938 -0.0684  0.0444 -0.0455
   61PNCE   AM1  540   1.291  11.124   8.545  0.2820  0.0119  0.1384
   61PNCE   AM2  541   1.527  11.334   8.776  0.1834  0.1815 -0.0820
   61PNCE   T1A  542   1.567  11.195   8.145  0.0258 -0.0739 -0.2298
   61PNCE   C2A  543   1.521  11.027   7.722  0.0918  0.1203 -0.2101
   61PNCE   C3A  544   1.387  10.746   7.391 -0.2702 -0.2203  0.0552
   61PNCE   C1B  545   1.889  11.047   8.504 -0.0229 -0.0858 -0.0592
   61PNCE   C2B  546   1.816  10.751   8.277  0.1246  0.0322 -0.2307
   61PNCE   C3B  547   1.957  10.515   7.973  0.1739  0.4275 -0.1945
   61PNCE   D4B  548   1.798  10.588   7.603 -0.1534  0.0769 -0.0620
   61PNCE   C5B  549   2.093  10.640   7.360  0.2309  0.1030 -0.1232
   61PNCE   C6B  550   2.391  10.698   7.038  0.0474 -0.0170  0.1539
   62PNCE   AM1  551   2.864   3.729   8.630 -0.1359 -0.2800 -0.2802
   62PNCE   AM2  552   3.125   3.643   8.453 -0.1503  0.0600  0.3151
   62PNCE   T1A  553   2.629   3.719   8.263 -0.0508 -0.4494 -0.0039
   62PNCE   C2A  554   2.669   3.704   7.794  0.0817 -0.1339 -0.1593
   62PNCE   C3A  555   2.753   3.800   7.419 -0.1307 -0.0877 -0.0920
   62PNCE   C1B  556   3.125   3.255   8.154 -0.2711 -0.0901 -0.0423
   62PNCE   C2B  557   2.823   2.956   7.921 -0.0703 -0.0177 -0.1232
   62PNCE   C3B  558   2.811   2.913   7.450  0.3118  0.1871  0.0493
   62PNCE   D4B  559   2.780   2.847   7.075 -0.0026  0.0824 -0.0246
   62PNCE   C5B  560   3.109   2.490   6.907 -0.1138  0.2269 -0.3393
   62PNCE   C6B  561   3.219   2.061   6.944 -0.1144  0.0026  0.1037
   63PNCE   AM1  562   7.835   8.886   9.080  0.2293  0.1288 -0.0506
   63PNCE   AM2  563   7.469   8.969   9.120 -0.0477 -0.3069  0.1347
   63PNCE   T1A  564   7.615   8.828   8.628 -0.1705  0.1788  0.0537
   63PNCE   C2A  565   7.574   8.578   8.330  0.1282 -0.2087  0.0955
   63PNCE   C3A  566   7.663   8.612   7.852 -0.0160 -0.4201 -0.2071
   63PNCE   C1B  567   7.104   9.048   8.888  0.0663  0.0833  0.0636
   63PNCE   C2B  568   6.784   9.190   8.663 -0.2626  0.0363 -0.4599
   63PNCE   C3B  569   6.692   8.975   8.242 -0.1443  0.2058  0.0370
   63PNCE   D4B  570   6.676   8.736   7.839 -0.5178 -0.3571 -0.3124
   63PNCE   C5B  571   6.377   8.595   7.596  0.0779  0.0044  0.1593
   63PNCE   C6B  572   6.526   8.301   7.315  0.1818 -0.3367 -0.4800
   64PNCE   AM1  573   0.759  11.210   9.078 -0.0562  0.4304  0.0694
   64PNCE   AM2  574   1.165  11.068   9.062  0.1299 -0.1073  0.4014
   64PNCE   T1A  575   0.762  10.745   9.097 -0.2114  0.3070 -0.3039
   64PNCE   C2A  576   0.483  10.361   8.944 -0.0448  0.0938 -0.2717
   64PNCE   C3A  577   0.416  10.077   8.712 -0.1669 -0.1404 -0.3221
   64PNCE   C1B  578   0.856  10.951   8.649  0.2160  0.0101  0.0436
   64PNCE   C2B  579   0.801  10.818   8.243  0.2391 -0.3593 -0.0179
   64PNCE   C3B  580   0.498  10.631   7.938 -0.1054 -0.2619 -0.0352
   64PNCE   D4B  581   0.282  10.271   7.734 -0.0848  0.0967 -0.0822
   64PNCE   C5B  582   0.369  10.299   7.261 -0.1737  0.2648 -0.3797
   64PNCE   C6B  583   0.394  10.375   6.838 -0.1726  0.1054  0.1093
   65PNCE   AM1  584   0.411  14.195   8.051 -0.0803  0.0824  0.2111
   65PNCE   AM2  585   0.048  13.885   8.105  0.2093 -0.2647  0.2157
   65PNCE   T1A  586   0.475  14.403   7.615 -0.1614 -0.3040  0.0810
   65PNCE   C2A  587   0.555  14.262   7.142 -0.3297  0.0584 -0.0792
   65PNCE   C3A  588   0.758  14.377   6.771  0.1919  0.1292 -0.3208
   65PNCE   C1B  589   0.037  13.751   7.720  0.0203  0.1217  0.0798
   65PNCE   C2B  590   0.166  13.775   7.314  0.1899 -0.0292 -0.0690
   65PNCE   C3B  591   0.229  13.822   6.914  0.0972  0.1176  0.2495
   65PNCE   D4B  592   0.309  14.079   6.556  0.0371  0.3785  0.0290
   65PNCE   C5B  593   0.098  14.294   6.306 -0.1860  0.1126  0.1033
   65PNCE   C6B  594   0.237  14.672   6.032  0.3694 -0.0430  0.1547
   66CHOL   ROH  595   9.226   1.466   4.550  0.0525  0.0812  0.0040
   66CHOL    R1  596   9.179   1.477   4.829  0.1174  0.2812  0.0082
   66CHOL    R2  597   9.180   1.252   4.990 -0.2315  0.3427  0.1038
   66CHOL    R3  598   9.363   1.395   5.132  0.0353  0.1030  0.0110
   66CHOL    R4  599   9.232   1.224   5.331  0.0295  0.1538  0.0525
   66CHOL    R5  600   9.254   1.441   5.340  0.2552  0.1303  0.1235
   66CHOL    C1  601   9.433   1.342   5.662  0.4319 -0.1812 -0.0646
   66CHOL    C2  602   9.710   1.123   5.900  0.2548 -0.0948  0.0918
   67PNCE   AM1  603   2.680  12.060   9.033 -0.2629  0.1984  0.4069
   67PNCE   AM2  604   2.382  12.058   8.853 -0.3622  0.1260  0.0754
   67PNCE   T1A  605   2.693  11.755   8.605  0.3468 -0.4514 -0.0476
   67PNCE   C2A  606   2.377  11.719   8.301  0.0716  0.3297  0.1803
   67PNCE   C3A  607   2.196  11.976   8.034  0.2709  0.0284  0.0354
   67PNCE   C1B  608   2.646  12.204   8.460 -0.0305 -0.2521  0.0528
   67PNCE   C2B  609   2.709  11.991   7.989 -0.0855  0.0502  0.0556
   67PNCE   C3B  610   2.643  11.933   7.529  0.2931  0.0575  0.2730
   67PNCE   D4B  611   2.974  11.681   7.316 -0.2733  0.0619  0.2258
   67PNCE   C5B  612   3.116  11.607   6.942 -0.0371 -0.0534  0.0477
   67PNCE   C6B  613   2.958  11.923   6.630 -0.0148  0.1885 -0.0785
   68CHOL   ROH  614   6.992   7.336   7.309  0.0422 -0.0350 -0.1837
   68CHOL    R1  615   7.065   7.564   7.158  0.0202  0.0671 -0.0416
   68CHOL    R2  616   6.885   7.766   7.099 -0.0341  0.0236 -0.0270
   68CHOL    R3  617   7.075   7.924   7.212 -0.1493  0.0470  0.1367
   68CHOL    R4  618   6.891   8.111   7.081 -0.1573  0.0351  0.1334
   68CHOL    R5  619   7.107   8.101   7.054 -0.1402  0.1317  0.2327
   68CHOL    C1  620   7.072   8.461   7.177 -0.3371  0.0638  0.3806
   68CHOL    C2  621   7.034   8.610   6.798  0.1591 -0.0428 -0.1795
   69CHOL   ROH  622   2.120   3.815   8.486 -0.0369 -0.1114 -0.0823
   69CHOL    R1  623   2.223   3.928   8.248  0.0157  0.0489  0.0145
   69CHOL    R2  624   2.241   3.786   8.011  0.1282  0.1865 -0.0620
   69CHOL    R3  625   2.098   3.995   7.912  0.1109  0.2088  0.0100
   69CHOL    R4  626   2.329   3.972   7.733  0.1378  0.3206  0.0299
   69CHOL    R5  627   2.264   4.151   7.838  0.0977  0.2654  0.0995
   69CHOL    C1  628   2.245   4.276   7.478  0.1271  0.4195  0.1511
   69CHOL    C2  629   2.409   4.626   7.467  0.0036  0.2186 -0.0727
   70PNCE   AM1  630   9.641   9.749   8.467 -0.0455  0.0291 -0.0757
   70PNCE   AM2  631   9.256   9.825   8.363 -0.3342  0.0053 -0.0302
   70PNCE   T1A  632   9.581   9.733   7.995 -0.1188  0.2899 -0.3292
   70PNCE   C2A  633   9.677   9.776   7.511  0.1406 -0.3303  0.0346
   70PNCE   C3A  634   9.693   9.576   7.163 -0.0218  0.1277  0.0960
   70PNCE   C1B  635   8.992   9.947   8.016 -0.1370 -0.2056  0.0093
   70PNCE   C2B  636   8.776  10.118   7.699  0.0694 -0.0235  0.1465
   70PNCE   C3B  637   8.807  10.108   7.294  0.1687  0.0340 -0.0926
   70PNCE   D4B  638   8.926   9.981   6.847  0.0342 -0.0601 -0.1172
   70PNCE   C5B  639   9.325   9.869   6.684 -0.0538 -0.1547 -0.0251
   70PNCE   C6B  640   9.595  10.226   6.510  0.2346  0.2490  0.0974
   71PNCE   AM1  641   1.427  12.585   8.130  0.1239 -0.0532  0.1492
   71PNCE   AM2  642   1.556  12.356   8.420  0.0200  0.2629  0.0898
   71PNCE   T1A  643   1.487  12.353   7.732  0.1041 -0.0901 -0.1268
   71PNCE   C2A  644   1.713  12.214   7.397  0.0580  0.2414  0.0318
   71PNCE   C3A  645   1.695  12.388   6.954  0.2834 -0.2261 -0.2429
   71PNCE   C1B  646   1.655  12.061   8.064  0.1273 -0.1217  0.0103
   71PNCE   C2B  647   1.712  11.770   7.799 -0.1273 -0.1228  0.0100
   71PNCE   C3B  648   1.985  11.768   7.561  0.0985  0.1723  0.0442
   71PNCE   D4B  649   2.213  11.579   7.296  0.0758 -0.2446  0.0378
   71PNCE   C5B  650   2.445  11.697   7.014  0.0758  0.0631  0.1073
   71PNCE   C6B  651   2.467  11.876   6.684  0.0105 -0.0699 -0.0720
   72PNCE   AM1  652   3.871   2.716   8.223 -0.1033  0.0609 -0.1760
   72PNCE   AM2  653   3.872   2.941   8.522 -0.0915  0.2473 -0.0587
   72PNCE   T1A  654   3.893   2.752   7.769  0.1322  0.2751 -0.4327
   72PNCE   C2A  655   3.948   2.831   7.300 -0.0331 -0.1987 -0.2502
   72PNCE   C3A  656   3.861   2.952   6.799  0.2917 -0.1779  0.0013
   72PNCE   C1B  657   3.718   3.189   8.113  0.1354 -0.3790 -0.0181
   72PNCE   C2B  658   3.486   3.379   7.820  0.0471  0.3961 -0.0012
   72PNCE   C3B  659   3.381   3.485   7.379 -0.1072 -0.1791 -0.1930
   72PNCE   D4B  660   3.262   3.775   7.158 -0.1158  0.0889 -0.2310
   72PNCE   C5B  661   3.053   4.186   7.025 -0.0565 -0.0050  0.0274
   72PNCE   C6B  662   3.093   4.443   6.710 -0.0638  0.0264  0.1796
   73CHOL   ROH  663   9.488  11.797   7.104 -0.0927  0.0225 -0.0640
   73CHOL    R1  664   9.549  11.645   6.874 -0.1803  0.1231 -0.1562
   73CHOL    R2  665   9.673  11.397   6.887  0.1808  0.2815 -0.3282
   73CHOL    R3  666   9.458  11.319   6.740  0.0875  0.0042 -0.0531
   73CHOL    R4  667   9.681  11.160   6.636  0.1334  0.2144 -0.2659
   73CHOL    R5  668   9.546  11.285   6.520 -0.1388  0.0319 -0.1469
   73CHOL    C1  669   9.485  10.948   6.352  0.0183 -0.0851  0.0285
   73CHOL    C2  670   9.516  10.613   6.254 -0.1426  0.1421 -0.1944
   74CHOL   ROH  671  15.467   6.399   8.849  0.0012  0.1253  0.0526
   74CHOL    R1  672  15.301   6.510   8.648  0.1802  0.1484 -0.0860
   74CHOL    R2  673  15.397   6.586   8.401  0.3300 -0.2054 -0.1449
   74CHOL    R3  674  15.201   6.422   8.310  0.1396 -0.0484 -0.0236
   74CHOL    R4  675  15.305   6.554   8.069  0.2371 -0.2860 -0.1113
   74CHOL    R5  676  15.097   6.546   8.133  0.2394 -0.0327 -0.0701
   74CHOL    C1  677  15.066   6.381   7.791  0.0043 -0.1856  0.0223
   74CHOL    C2  678  15.136   6.210   7.456  0.1369 -0.2836  0.2841
   75PNCE   AM1  679  10.956   5.567   8.689 -0.3969  0.0957 -0.0309
   75PNCE   AM2  680  10.575   5.709   8.566  0.0609 -0.0731 -0.0840
   75PNCE   T1A  681  11.239   5.507   8.428  0.1160 -0.2291  0.1789
   75PNCE   C2A  682  11.373   5.811   8.009  0.3412 -0.1302 -0.3022
   75PNCE   C3A  683  11.092   5.992   7.657  0.0879  0.0662  0.1324
   75PNCE   C1B  684  10.733   5.489   8.206 -0.2262  0.2310  0.2361
   75PNCE   C2B  685  10.776   5.574   7.751  0.1992 -0.1063  0.2365
   75PNCE   C3B  686  10.942   5.650   7.336  0.0681  0.0167 -0.4129
   75PNCE   D4B  687  11.056   5.953   6.975 -0.1372  0.0365  0.1015
   75PNCE   C5B  688  11.438   6.128   7.010 -0.0450 -0.3415  0.0158
   75PNCE   C6B  689  11.662   6.483   6.877 -0.0615 -0.1875  0.2484
   76XCA    COO  690  12.538   2.109   8.529  0.2871 -0.3357 -0.0742
   76XCA     C1  691  12.678   2.218   8.234 -0.1865 -0.1142  0.0434
   76XCA     C2  692  12.788   2.048   7.836  0.0785  0.1478  0.3137
   76XCA     C3  693  13.174   1.911   7.758  0.0042 -0.1626  0.1385
   76XCA     C4  694  13.508   2.107   7.489 -0.1767  0.1324 -0.1933
   76XCA     C5  695  13.913   1.963   7.277  0.2692  0.1767  0.3482
   76XCA     C6  696  13.970   1.559   7.067 -0.0211  0.0134  0.3588
   77CHOL   ROH  697   5.039   3.504   8.737  0.0123  0.2268  0.0862
   77CHOL    R1  698   4.939   3.614   8.496  0.0636  0.1190  0.0144
   77CHOL    R2  699   5.103   3.733   8.308  0.0907  0.1382  0.0495
   77CHOL    R3  700   4.984   3.556   8.140  0.2360  0.0410  0.0477
   77CHOL    R4  701   5.135   3.736   7.964 -0.0975  0.3143  0.0315
   77CHOL    R5  702   4.923   3.687   7.949 -0.0442  0.0352  0.1293
   77CHOL    C1  703   5.042   3.571   7.605 -0.0706  0.3255  0.0192
   77CHOL    C2  704   5.027   3.418   7.216  0.0559 -0.1962 -0.1390
   78PNCE   AM1  705  12.112  10.510   8.118 -0.2314  0.0688  0.0006
   78PNCE   AM2  706  12.415  10.305   8.293 -0.0286  0.0507  0.3075
   78PNCE   T1A  707  11.938  10.490   7.663 -0.1210  0.0620 -0.1480
   78PNCE   C2A  708  11.785  10.263   7.318 -0.2943  0.0115  0.1555
   78PNCE   C3A  709  11.830   9.978   7.042 -0.1575  0.2635 -0.4945
   78PNCE   C1B  710  12.311  10.171   7.791 -0.2136 -0.1574 -0.1253
   78PNCE   C2B  711  12.282  10.014   7.372  0.2299 -0.2795  0.1713
   78PNCE   C3B  712  12.466   9.891   7.028 -0.0481  0.0526 -0.0793
   78PNCE   D4B  713  12.822   9.712   6.816  0.1954  0.3999  0.3568
   78PNCE   C5B  714  13.004   9.290   6.838  0.0471 -0.3370  0.0273
   78PNCE   C6B  715  12.741   8.989   7.004 -0.3372  0.0710  0.0798
   79XCA    COO  716   4.330   4.531   7.358 -0.2750  0.0985  0.0143
   79XCA     C1  717   3.899   4.710   7.399  0.1467 -0.3644 -0.3121
   79XCA     C2  718   3.658   5.083   7.174 -0.0394 -0.0120 -0.2491
   79XCA     C3  719   3.870   5.232   6.919  0.1911  0.3805 -0.4234
   79XCA     C4  720   3.749   5.553   6.660 -0.3017 -0.0612  0.1514
   79XCA     C5  721   3.508   5.731   6.251  0.0859  0.1776 -0.1061
   79XCA     C6  722   3.716   5.735   5.831  0.0350 -0.2258 -0.0050
   80PNCE   AM1  723   4.667  15.871   8.451  0.1806  0.4709  0.1862
   80PNCE   AM2  724   4.414  15.590   8.412  0.0955  0.0542  0.2809
   80PNCE   T1A  725   4.573  16.003   8.040  0.1891  0.0511 -0.3909
   80PNCE   C2A  726   4.545  15.961   7.486  0.0995 -0.0200 -0.1633
   80PNCE   C3A  727   4.859  15.703   7.259 -0.4612  0.1010 -0.1874
   80PNCE   C1B  728   4.130  15.562   8.124 -0.1593  0.0546  0.2224
   80PNCE   C2B  729   3.860  15.532   7.732  0.0297 -0.0731  0.0183
   80PNCE   C3B  730   3.520  15.598   7.413 -0.1130  0.2443 -0.1380
   80PNCE   D4B  731   3.084  15.516   7.191  0.1315  0.2360 -0.0996
   80PNCE   C5B  732   2.944  15.151   6.980  0.1013  0.2282  0.2266
   80PNCE   C6B  733   2.861  14.724   7.048 -0.0332  0.2422  0.1713
   81XCA    COO  734   9.548   4.656   8.597 -0.3063 -0.1763 -0.0101
   81XCA     C1  735   9.441   4.694   8.166 -0.0172  0.2915 -0.0813
   81XCA     C2  736   9.388   4.710   7.773 -0.1512 -0.3361 -0.0123
   81XCA     C3  737   9.575   4.786   7.373 -0.1129 -0.3007  0.3273
   81XCA     C4  738   9.832   4.707   7.006  0.3179 -0.4122  0.1448
   81XCA     C5  739  10.142   4.970   6.731 -0.4342 -0.1085 -0.2420
   81XCA     C6  740  10.230   5.252   6.320 -0.0798  0.0272 -0.0231
   82CHOL   ROH  741   2.262  13.329   8.672  0.2398 -0.1604 -0.0174
   82CHOL    R1  742   2.422  13.538   8.568 -0.0209  0.0347 -0.0302
   82CHOL    R2  743   2.584  13.505   8.346  0.0080  0.2248 -0.0221
   82CHOL    R3  744   2.447  13.721   8.254 -0.2493  0.0623 -0.0382
   82CHOL    R4  745   2.690  13.712   8.090 -0.0782  0.4743  0.1371
   82CHOL    R5  746   2.617  13.882   8.205 -0.4273  0.3362  0.1605
   82CHOL    C1  747   2.623  14.035   7.855 -0.3698  0.4669  0.2147
   82CHOL    C2  748   2.868  14.181   7.746  0.1714 -0.0532 -0.0419
   83CHOL   ROH  749   1.698  11.390   7.527  0.0541  0.1010  0.4058
   83CHOL    R1  750   1.951  11.310   7.626  0.1802  0.1004  0.0894
   83CHOL    R2  751   1.997  11.059   7.732  0.2359  0.1961  0.2790
   83CHOL    R3  752   2.197  11.052   7.547 -0.0474 -0.0858 -0.0333
   83CHOL    R4  753   2.260  10.834   7.733  0.3329  0.3078  0.3415
   83CHOL    R5  754   2.393  10.997   7.673  0.1799  0.2625 -0.2065
   83CHOL    C1  755   2.600  10.698   7.560  0.1235  0.1079  0.0847
   83CHOL    C2  756   3.025  10.644   7.406 -0.1171 -0.0634 -0.4956
   84PNCE   AM1  757   6.717   1.764   8.295  0.0750  0.1099 -0.2406
   84PNCE   AM2  758   6.702   2.059   8.028  0.1402  0.0969  0.1891
   84PNCE   T1A  759   6.305   1.803   8.318  0.0177 -0.3774  0.1335
   84PNCE   C2A  760   5.899   1.705   8.052 -0.2255 -0.1121  0.0273
   84PNCE   C3A  761   5.642   1.581   7.650  0.0772 -0.0744  0.1197
   84PNCE   C1B  762   6.788   2.194   7.610  0.0817  0.0676  0.0591
   84PNCE   C2B  763   6.785   2.320   7.200  0.0823  0.0050  0.1110
   84PNCE   C3B  764   6.586   2.023   6.824  0.1204  0.0451 -0.0082
   84PNCE   D4B  765   6.254   1.771   6.948 -0.0794 -0.1824  0.0308
   84PNCE   C5B  766   6.505   1.445   7.235  0.0118  0.1126 -0.0123
   84PNCE   C6B  767   6.479   1.190   7.606  0.0088 -0.0096 -0.2700
   85PNCE   AM1  768   3.576   4.423   8.745 -0.0097 -0.0296  0.4119
   85PNCE   AM2  769   3.878   4.331   8.765 -0.1006  0.1166 -0.2547
   85PNCE   T1A  770   3.589   3.956   8.600  0.1450 -0.3675  0.0117
   85PNCE   C2A  771   3.625   3.734   8.102  0.1117  0.3121 -0.5768
   85PNCE   C3A  772   3.580   3.834   7.728 -0.0344  0.3264  0.0935
   85PNCE   C1B  773   3.849   4.269   8.295 -0.0790 -0.0695 -0.1061
   85PNCE   C2B  774   3.618   4.311   7.913  0.1484 -0.1914  0.0991
   85PNCE   C3B  775   3.373   4.658   7.715  0.0534  0.0964 -0.3677
   85PNCE   D4B  776   3.283   5.052   7.658 -0.1620 -0.0248  0.0069
   85PNCE   C5B  777   3.227   5.356   7.394 -0.1905 -0.0801  0.0652
   85PNCE   C6B  778   3.371   5.513   7.002 -0.2670  0.1500  0.3108
   86CHOL   ROH  779   2.822   4.811   8.834  0.1712  0.0552  0.0206
   86CHOL    R1  780   2.954   4.852   8.587  0.0926 -0.0991 -0.0483
   86CHOL    R2  781   3.012   4.645   8.413 -0.0816 -0.1925 -0.0009
   86CHOL    R3  782   2.877   4.800   8.235 -0.0779 -0.1871  0.0015
   86CHOL    R4  783   3.026   4.608   8.070  0.0723 -0.0557 -0.0103
   86CHOL    R5  784   3.029   4.825   8.051 -0.0175 -0.0493  0.0722
   86CHOL    C1  785   2.908   4.731   7.702  0.1653  0.0291 -0.0135
   86CHOL    C2  786   2.966   4.541   7.333  0.1471  0.4010 -0.3296
   87PNCE   AM1  787   2.990  15.417   9.025 -0.0973 -0.1019  0.0899
   87PNCE   AM2  788   2.860  15.728   8.929  0.0753  0.1057 -0.1667
   87PNCE   T1A  789   3.278  15.443   8.758 -0.1503 -0.0446 -0.0844
   87PNCE   C2A  790   3.317  15.475   8.275 -0.2655  0.0358 -0.1741
   87PNCE   C3A  791   3.275  15.402   7.838 -0.1514  0.1801  0.1388
   87PNCE   C1B  792   2.807  15.988   8.494  0.2463 -0.1734 -0.1494
   87PNCE   C2B  793   2.710  16.016   8.131 -0.2683 -0.2424 -0.1310
   87PNCE   C3B  794   2.696  16.090   7.735 -0.1207 -0.3293  0.0943
   87PNCE   D4B  795   2.571  16.276   7.426 -0.2143 -0.1570 -0.4408
   87PNCE   C5B  796   2.664  16.100   7.009  0.1556 -0.2004 -0.2430
   87PNCE   C6B  797   2.843  15.900   6.691 -0.4846 -0.1352  0.1539
   88XCA    COO  798  11.556   5.668   4.941  0.3082 -0.1064 -0.2418
   88XCA     C1  799  11.518   5.474   5.422  0.1742  0.2142  0.1621
   88XCA     C2  800  11.446   5.537   5.910 -0.1945  0.1349  0.2621
   88XCA     C3  801  11.261   5.414   6.293 -0.0341 -0.0183  0.0674
   88XCA     C4  802  11.160   4.978   6.347 -0.1395  0.1281 -0.1067
   88XCA     C5  803  11.035   4.509   6.350  0.1698  0.1993  0.2657
   88XCA     C6  804  10.840   4.262   6.686 -0.1822  0.3580  0.0867
   89CHOL   ROH  805  15.547   0.998   5.268 -0.2657 -0.0303 -0.1125
   89CHOL    R1  806  15.443   1.118   5.502 -0.2066 -0.0629 -0.0699
   89CHOL    R2  807  15.338   0.970   5.711 -0.1743 -0.0904 -0.0753
   89CHOL    R3  808  15.518   1.111   5.858 -0.1330 -0.1307 -0.0860
   89CHOL    R4  809  15.362   0.960   6.056 -0.0532 -0.2173 -0.0862
   89CHOL    R5  810  15.396   1.175   6.055 -0.0706 -0.2127 -0.0186
   89CHOL    C1  811  15.544   1.086   6.395  0.0561 -0.3291 -0.1026
   89CHOL    C2  812  15.459   1.354   6.692  0.0343 -0.1831  0.1588
   90CHOL   ROH  813  13.905  11.655   4.298 -0.2779 -0.1221  0.1618
   90CHOL    R1  814  13.963  11.706   4.570 -0.2674 -0.2264  0.1800
   90CHOL    R2  815  13.978  11.505   4.759 -0.0330 -0.3281  0.0613
   90CHOL    R3  816  14.224  11.612   4.807 -0.1235 -0.1192  0.0651
   90CHOL    R4  817  14.175  11.434   5.035  0.0496 -0.2016  0.0349
   90CHOL    R5  818  14.229  11.645   5.044 -0.1365 -0.1558  0.0687
   90CHOL    C1  819  14.520  11.494   5.240  0.0126  0.0684  0.0231
   90CHOL    C2  820  14.883  11.698   5.370 -0.0237  0.1211  0.1536
   91CHOL   ROH  821  14.342   7.630   5.274  0.0327 -0.0671  0.0005
   91CHOL    R1  822  14.286   7.581   5.547  0.0950 -0.0820  0.0106
   91CHOL    R2  823  14.279   7.327   5.654  0.1690 -0.0841  0.0089
   91CHOL    R3  824  14.459   7.430   5.830  0.1805 -0.0487 -0.0231
   91CHOL    R4  825  14.374   7.176   5.950  0.0843  0.0387  0.0998
   91CHOL    R5  826  14.372   7.373   6.045  0.1347  0.0910 -0.0027
   91CHOL    C1  827  14.599   7.185   6.287  0.0457  0.1434  0.1227
   91CHOL    C2  828  14.370   6.877   6.424  0.2776  0.0315  0.0707
   92PNCE   AM1  829   9.957   8.897   8.386 -0.1388  0.1052 -0.1343
   92PNCE   AM2  830   9.640   8.956   8.399 -0.1356 -0.1929 -0.0629
   92PNCE   T1A  831   9.897   8.878   7.977  0.1254 -0.1411 -0.2106
   92PNCE   C2A  832   9.778   8.955   7.613 -0.1126  0.1715 -0.0162
   92PNCE   C3A  833   9.625   8.775   7.315 -0.0568 -0.0358  0.3717
   92PNCE   C1B  834   9.422   8.927   7.985 -0.0736 -0.1572 -0.0086
   92PNCE   C2B  835   9.227   8.858   7.597  0.0606  0.0115  0.1789
   92PNCE   C3B  836   8.844   8.813   7.341  0.0837 -0.0554  0.2997
   92PNCE   D4B  837   8.702   8.991   6.964 -0.0888 -0.0451 -0.0503
   92PNCE   C5B  838   9.050   8.947   6.620 -0.0712 -0.0170 -0.1319
   92PNCE   C6B  839   9.034   8.706   6.206 -0.1781  0.2404  0.2686
   93CHOL   ROH  840   0.474   5.502   9.013  0.0048 -0.2035  0.0188
   93CHOL    R1  841   0.371   5.525   8.750  0.0682 -0.0446  0.0064
   93CHOL    R2  842   0.511   5.647   8.546  0.2222 -0.1343  0.0550
   93CHOL    R3  843   0.467   5.411   8.418  0.0120 -0.0656 -0.0022
   93CHOL    R4  844   0.524   5.602   8.203  0.1593 -0.0610  0.0429
   93CHOL    R5  845   0.350   5.473   8.219  0.0499  0.0837  0.0215
   93CHOL    C1  846   0.490   5.355   7.884 -0.0747  0.0461 -0.0179
   93CHOL    C2  847   0.521   5.575   7.605  0.0435  0.3329  0.0945
   94XCA    COO  848  13.205   0.132   4.341  0.3381 -0.3883 -0.1041
   94XCA     C1  849  12.993   0.031   4.746 -0.1517  0.0571 -0.0202
   94XCA     C2  850  13.024  -0.145   5.132  0.0966 -0.2631 -0.0511
   94XCA     C3  851  12.919  -0.406   5.548  0.0682 -0.1792 -0.2903
   94XCA     C4  852  12.908  -0.553   5.988  0.1562 -0.1445  0.2336
   94XCA     C5  853  12.619  -0.618   6.379  0.2337  0.1382  0.0038
   94XCA     C6  854  12.722  -0.849   6.717 -0.3213  0.0549 -0.3396
   95CHOL   ROH  855   0.409  10.901   8.788  0.0528  0.0661 -0.1334
   95CHOL    R1  856   0.299  10.766   8.565 -0.0379  0.1177 -0.1201
   95CHOL    R2  857   0.433  10.565   8.431 -0.0580  0.2045 -0.2715
   95CHOL    R3  858   0.207  10.424   8.482  0.0099  0.1222 -0.1929
   95CHOL    R4  859   0.342  10.275   8.267  0.0518  0.1020 -0.1541
   95CHOL    R5  860   0.136  10.347   8.266  0.0187  0.0107 -0.1575
   95CHOL    C1  861   0.075   9.973   8.219  0.1794 -0.0348 -0.0121
   95CHOL    C2  862  -0.117   9.633   8.168 -0.0230  0.1856  0.0131
   96XCA    COO  863   2.029   6.882   5.193  0.2624  0.0892 -0.0564
   96XCA     C1  864   1.964   6.716   5.693  0.0640 -0.4458  0.2362
   96XCA     C2  865   2.105   6.624   6.096  0.0206  0.2878  0.2286
   96XCA     C3  866   2.077   6.552   6.527  0.1318  0.3362  0.0408
   96XCA     C4  867   1.738   6.579   6.837  0.2393 -0.2492  0.0056
   96XCA     C5  868   1.317   6.572   6.735  0.2560  0.0172 -0.1329
   96XCA     C6  869   1.019   6.462   6.408  0.0254  0.0538 -0.1091
   97PNCE   AM1  870   0.269  14.952   8.384  0.0796  0.0350  0.0254
   97PNCE   AM2  871   0.022  15.018   8.516 -0.2783  0.0225  0.2036
   97PNCE   T1A  872   0.070  14.751   7.920  0.0038 -0.0808  0.0659
   97PNCE   C2A  873   0.036  14.875   7.560  0.0561 -0.2968 -0.2467
   97PNCE   C3A  874  -0.219  14.818   7.165  0.2334  0.1211  0.0286
   97PNCE   C1B  875  -0.184  15.131   8.091  0.2590 -0.1651 -0.0471
   97PNCE   C2B  876  -0.178  15.288   7.707  0.2411 -0.0020  0.2229
   97PNCE   C3B  877  -0.142  15.540   7.382  0.0328 -0.0987  0.0726
   97PNCE   D4B  878  -0.251  15.961   7.346 -0.1455 -0.4397 -0.0252
   97PNCE   C5B  879  -0.405  16.137   6.938  0.3191 -0.0243  0.2464
   97PNCE   C6B  880  -0.834  16.520   6.898 -0.0023 -0.2870 -0.1207
   98PNCE   AM1  881   0.285   4.007   8.734  0.0345 -0.0661  0.0648
   98PNCE   AM2  882   0.177   3.744   8.531  0.3429 -0.3259  0.1911
   98PNCE   T1A  883   0.529   3.982   8.300 -0.0932  0.2455 -0.1392
   98PNCE   C2A  884   0.553   3.839   7.838 -0.2596 -0.2520 -0.0215
   98PNCE   C3A  885   0.699   3.893   7.487  0.0896  0.0246  0.3932
   98PNCE   C1B  886   0.020   4.130   8.257  0.3046  0.0076 -0.2745
   98PNCE   C2B  887  -0.006   4.024   7.868 -0.1424 -0.2832 -0.0894
   98PNCE   C3B  888   0.105   3.822   7.586 -0.0965  0.2619 -0.0194
   98PNCE   D4B  889   0.099   3.548   7.204  0.0951  0.1308  0.2695
   98PNCE   C5B  890  -0.229   3.385   6.997  0.2707  0.1084  0.0255
   98PNCE   C6B  891  -0.485   3.456   6.609 -0.2437  0.0115  0.3208
   99PNCE   AM1  892  14.021   1.079   8.843 -0.0814  0.1441  0.1324
   99PNCE   AM2  893  13.840   1.289   8.686  0.0749  0.1480  0.0990
   99PNCE   T1A  894  14.384   1.250   8.571 -0.2845  0.2421  0.0481
   99PNCE   C2A  895  14.504   1.258   8.147  0.0397  0.2766 -0.2233
   99PNCE   C3A  896  14.867   1.044   7.896 -0.1985  0.0738  0.4785
   99PNCE   C1B  897  14.047   1.494   8.338  0.0727  0.2990 -0.1311
   99PNCE   C2B  898  14.135   1.605   7.992 -0.1272  0.3181  0.0997
   99PNCE   C3B  899  14.292   1.769   7.594  0.0920 -0.1681  0.2399
   99PNCE   D4B  900  14.467   1.627   7.251 -0.1613 -0.1839 -0.0377
   99PNCE   C5B  901  14.410   1.816   6.896  0.0535 -0.1690  0.3056
   99PNCE   C6B  902  14.089   1.659   6.563 -0.2451 -0.1303  0.0104
  100CHOL   ROH  903   7.419   4.658   8.390 -0.2276 -0.1314  0.1285
  100CHOL    R1  904   7.442   4.545   8.132 -0.1729 -0.0754  0.1076
  100CHOL    R2  905   7.221   4.472   7.981 -0.1425 -0.1231  0.0770
  100CHOL    R3  906   7.336   4.633   7.795 -0.1834 -0.0450  0.1203
  100CHOL    R4  907   7.188   4.434   7.639 -0.0872 -0.0623  0.0654
  100CHOL    R5  908   7.399   4.485   7.618 -0.1087  0.0191  0.0976
  100CHOL    C1  909   7.277   4.564   7.265 -0.0934  0.0463  0.0993
  100CHOL    C2  910   7.373   4.485   6.855 -0.2630 -0.0224  0.0054
  101XCA    COO  911  11.189  12.283   7.774 -0.0476 -0.4216  0.3802
  101XCA     C1  912  11.184  12.393   7.315  0.0846 -0.2620  0.1985
  101XCA     C2  913  11.115  12.358   6.838 -0.0440 -0.2211 -0.1302
  101XCA     C3  914  11.074  12.026   6.753 -0.1660  0.0907  0.1310
  101XCA     C4  915  11.116  11.845   6.323  0.1535  0.0285  0.1681
  101XCA     C5  916  11.193  12.076   5.898 -0.1920 -0.0673  0.1227
  101XCA     C6  917  11.230  12.036   5.399  0.0448  0.1889  0.0433
  102PNCE   AM1  918   9.447  10.270   8.190 -0.2253  0.2981  0.1181
  102PNCE   AM2  919   9.783  10.310   8.338  0.0238 -0.2590 -0.1291
  102PNCE   T1A  920   9.410  10.676   8.095  0.0305 -0.1281  0.3846
  102PNCE   C2A  921   9.070  10.981   7.899  0.0897 -0.1905  0.1702
  102PNCE   C3A  922   8.993  11.175   7.575 -0.1492 -0.0379 -0.0835
  102PNCE   C1B  923  10.006  10.081   7.933  0.2213 -0.3669 -0.1871
  102PNCE   C2B  924  10.109  10.060   7.567  0.2481 -0.0285  0.1610
  102PNCE   C3B  925  10.071   9.916   7.167 -0.2063  0.2876 -0.2159
  102PNCE   D4B  926  10.071   9.695   6.862 -0.4267  0.0444  0.0093
  102PNCE   C5B  927  10.001   9.870   6.474  0.1047 -0.0637  0.2073
  102PNCE   C6B  928   9.706   9.791   6.235  0.0584  0.0612 -0.3004
  103PNCE   AM1  929   0.901  10.142   9.253  0.1181  0.2733  0.0875
  103PNCE   AM2  930   0.790   9.837   9.121 -0.1531 -0.0761  0.1276
  103PNCE   T1A  931   1.110  10.349   8.910 -0.1070 -0.0339 -0.0649
  103PNCE   C2A  932   1.250  10.597   8.565  0.0193 -0.0493  0.1273
  103PNCE   C3A  933   1.314  10.737   8.090  0.3708  0.1735  0.0051
  103PNCE   C1B  934   0.874   9.946   8.658 -0.2811  0.0074 -0.0487
  103PNCE   C2B  935   0.853  10.285   8.474 -0.1519 -0.0040 -0.1969
  103PNCE   C3B  936   0.917  10.384   7.985 -0.1291  0.0104 -0.2547
  103PNCE   D4B  937   0.883  10.188   7.567  0.3341 -0.0417 -0.3503
  103PNCE   C5B  938   0.628   9.812   7.502  0.2376 -0.0864  0.0500
  103PNCE   C6B  939   0.589   9.474   7.757  0.0923  0.1809 -0.0024
  104PNCE   AM1  940   0.878  14.451   7.832 -0.2338 -0.1812  0.0295
  104PNCE   AM2  941   0.580  14.694   8.059 -0.0929  0.4089  0.1667
  104PNCE   T1A  942   0.957  14.795   7.565 -0.3012  0.0337  0.2365
  104PNCE   C2A  943   1.221  14.977   7.306  0.1541 -0.0016  0.1100
  104PNCE   C3A  944   1.224  15.144   6.885  0.3238 -0.0919  0.1084
  104PNCE   C1B  945   0.489  14.941   7.717  0.2152 -0.3234 -0.0878
  104PNCE   C2B  946   0.488  14.894   7.336  0.0126 -0.1519  0.2412
  104PNCE   C3B  947   0.789  14.860   6.975 -0.0495  0.0364  0.0397
  104PNCE   D4B  948   0.953  14.957   6.507  0.1299 -0.0676  0.0418
  104PNCE   C5B  949   0.910  15.343   6.485 -0.0951 -0.1235 -0.0873
  104PNCE   C6B  950   0.906  15.762   6.349  0.1084 -0.2027 -0.3645
  105CHOL   ROH  951   2.489  10.511   5.517 -0.2927  0.0917 -0.0178
  105CHOL    R1  952   2.389  10.583   5.771 -0.3949 -0.0136 -0.0271
  105CHOL    R2  953   2.210  10.425   5.911 -0.1468 -0.2701  0.0132
  105CHOL    R3  954   2.397  10.444   6.108 -0.1605  0.0602 -0.0009
  105CHOL    R4  955   2.156  10.347   6.243 -0.0099 -0.2676  0.0365
  105CHOL    R5  956   2.274  10.522   6.299 -0.2659 -0.0730 -0.0147
  105CHOL    C1  957   2.299  10.320   6.622  0.0569  0.0440  0.0369
  105CHOL    C2  958   2.277  10.136   6.953 -0.2166 -0.0093  0.1950
  106PNCE   AM1  959  14.890   1.859   9.395  0.1028  0.3108 -0.3931
  106PNCE   AM2  960  14.674   1.679   9.336  0.0189 -0.1728 -0.1766
  106PNCE   T1A  961  14.955   1.940   8.912  0.0684  0.1418  0.2521
  106PNCE   C2A  962  15.073   2.121   8.462 -0.2041  0.0425 -0.0414
  106PNCE   C3A  963  15.102   2.076   8.047  0.0527 -0.3357  0.3141
  106PNCE   C1B  964  14.744   1.471   8.897 -0.4054  0.2965  0.1248
  106PNCE   C2B  965  14.894   1.523   8.551  0.2840 -0.2312  0.0382
  106PNCE   C3B  966  14.847   1.669   8.162  0.1535  0.0711 -0.3545
  106PNCE   D4B  967  14.704   1.521   7.785 -0.1404  0.0331 -0.0112
  106PNCE   C5B  968  14.489   1.306   7.616  0.0393  0.2728 -0.4120
  106PNCE   C6B  969  14.032   1.389   7.563  0.0670  0.1713  0.1051
  107PNCE   AM1  970  10.278   3.824   7.665 -0.0533 -0.0564  0.2016
  107PNCE   AM2  971  10.224   4.086   7.684 -0.0558 -0.0043 -0.0636
  107PNCE   T1A  972  10.563   3.560   7.419  0.0060 -0.1139  0.1970
  107PNCE   C2A  973  10.498   3.238   7.175 -0.1758  0.0469 -0.1767
  107PNCE   C3A  974  10.443   3.060   6.849  0.0423  0.1107 -0.0101
  107PNCE   C1B  975  10.330   4.501   7.596 -0.2055 -0.0541 -0.0833
  107PNCE   C2B  976  10.086   4.872   7.493  0.1370 -0.0221 -0.0324
  107PNCE   C3B  977  10.037   5.196   7.174  0.1354 -0.1878  0.1921
  107PNCE   D4B  978  10.159   5.519   6.874 -0.0890 -0.1868  0.1957
  107PNCE   C5B  979  10.525   5.361   6.693 -0.0803 -0.1511  0.0612
  107PNCE   C6B  980  10.967   5.280   6.766  0.0715  0.0545  0.2678
  108PNCE   AM1  981   0.615   4.391   8.957 -0.2001  0.1114  0.1336
  108PNCE   AM2  982   0.742   4.621   9.078  0.0915  0.0238  0.2410
  108PNCE   T1A  983   0.905   4.147   8.781 -0.0469  0.0444 -0.0980
  108PNCE   C2A  984   1.220   4.217   8.449 -0.0275 -0.1162 -0.1217
  108PNCE   C3A  985   1.606   4.043   8.289 -0.3672 -0.0155  0.1592
  108PNCE   C1B  986   1.006   4.655   8.661 -0.1368  0.0432 -0.1378
  108PNCE   C2B  987   0.853   4.846   8.329  0.2298 -0.1280 -0.0060
  108PNCE   C3B  988   0.781   4.704   7.841  0.0988 -0.1294  0.0043
  108PNCE   D4B  989   1.079   4.614   7.576  0.0587 -0.2450 -0.0439
  108PNCE   C5B  990   0.825   4.361   7.193 -0.0526 -0.1464 -0.1742
  108PNCE   C6B  991   0.878   4.057   6.954  0.0076  0.3804 -0.0703
  109CHOL   ROH  992   6.116  13.927   7.997 -0.0594 -0.3274 -0.2421
  109CHOL    R1  993   5.998  14.146   7.862  0.1309 -0.1411 -0.1106
  109CHOL    R2  994   6.040  14.196   7.594 -0.0292 -0.1665 -0.1390
  109CHOL    R3  995   5.768  14.194   7.584 -0.0477  0.2194  0.0908
  109CHOL    R4  996   5.852  14.263   7.311 -0.1576 -0.2460 -0.0736
  109CHOL    R5  997   5.713  14.374   7.437  0.1034  0.1225 -0.0922
  109CHOL    C1  998   5.487  14.300   7.138 -0.2498  0.0700  0.1802
  109CHOL    C2  999   5.672  14.154   6.883 -0.1725 -0.0489  0.2630
  110CHOL   ROH 1000   3.401  10.066   8.996 -0.3639 -0.0716 -0.0676
  110CHOL    R1 1001   3.421   9.945   8.741 -0.2350 -0.1397 -0.0258
  110CHOL    R2 1002   3.604  10.027   8.551 -0.3496  0.0176 -0.0685
  110CHOL    R3 1003   3.676   9.765   8.553 -0.0263  0.1030  0.0186
  110CHOL    R4 1004   3.765   9.865   8.292 -0.6160  0.0144 -0.2362
  110CHOL    R5 1005   3.638   9.692   8.328 -0.3478 -0.1193  0.1364
  110CHOL    C1 1006   3.927   9.525   8.143 -0.4677  0.0927 -0.2522
  110CHOL    C2 1007   3.992   9.673   7.780 -0.2822 -0.1444  0.1094
  111PNCE   AM1 1008  12.646   4.223   8.251 -0.1775 -0.1185  0.0663
  111PNCE   AM2 1009  12.742   4.537   8.311 -0.4712  0.0172 -0.1384
  111PNCE   T1A 1010  12.540   4.297   7.783 -0.1625  0.1100 -0.4107
  111PNCE   C2A 1011  12.736   4.178   7.409  0.1317  0.2046 -0.0127
  111PNCE   C3A 1012  12.948   3.838   7.317 -0.1922 -0.0546 -0.0258
  111PNCE   C1B 1013  13.027   4.815   8.118 -0.3034  0.2240 -0.1144
  111PNCE   C2B 1014  13.379   4.919   7.866 -0.0927 -0.2995 -0.0458
  111PNCE   C3B 1015  13.517   4.946   7.481 -0.0888  0.2633  0.4175
  111PNCE   D4B 1016  13.422   4.659   7.110  0.0196  0.1801 -0.0576
  111PNCE   C5B 1017  13.163   4.503   6.701 -0.1177 -0.1946 -0.0226
  111PNCE   C6B 1018  12.797   4.422   6.525 -0.0507 -0.3003 -0.1904
  112CHOL   ROH 1019   0.719   8.998   8.645  0.0595  0.0318 -0.1167
  112CHOL    R1 1020   0.503   9.123   8.511  0.0346 -0.0029 -0.1098
  112CHOL    R2 1021   0.538   9.335   8.338 -0.0131  0.0531 -0.0549
  112CHOL    R3 1022   0.401   9.176   8.166  0.0581  0.0500 -0.1080
  112CHOL    R4 1023   0.305   9.447   8.109 -0.1575  0.0097  0.0697
  112CHOL    R5 1024   0.182   9.273   8.156 -0.0162 -0.1064  0.0044
  112CHOL    C1 1025   0.040   9.362   7.813 -0.1748 -0.0184  0.0924
  112CHOL    C2 1026   0.077   9.715   7.703 -0.0832 -0.1403  0.1244
  113CHOL   ROH 1027  14.167   6.334   4.982 -0.0640 -0.1152  0.0860
  113CHOL    R1 1028  14.221   6.551   5.155 -0.1263 -0.0014 -0.0364
  113CHOL    R2 1029  14.030   6.740   5.220 -0.2720 -0.1953  0.0995
  113CHOL    R3 1030  14.096   6.672   5.475  0.0687 -0.0441  0.0580
  113CHOL    R4 1031  13.964   6.932   5.500 -0.3492 -0.2480  0.1182
  113CHOL    R5 1032  14.161   6.878   5.577 -0.1819  0.0902 -0.0410
  113CHOL    C1 1033  13.988   6.979   5.902 -0.0744 -0.1367  0.0901
  113CHOL    C2 1034  13.898   7.406   6.000 -0.0349  0.2121 -0.0882
  114XCA    COO 1035   3.702  11.835   8.841 -0.1036 -0.1178  0.1090
  114XCA     C1 1036   3.652  11.856   8.359  0.0189  0.0936  0.1342
  114XCA     C2 1037   3.624  12.029   7.919 -0.2354  0.0854 -0.4151
  114XCA     C3 1038   3.419  12.203   7.534  0.3622 -0.1929 -0.1217
  114XCA     C4 1039   3.423  12.561   7.234  0.0400  0.2771  0.0023
  114XCA     C5 1040   3.315  12.560   6.837 -0.1428 -0.0664 -0.2552
  114XCA     C6 1041   3.405  12.770   6.473 -0.0864 -0.2368 -0.1209
  115XCA    COO 1042   8.517   2.982   8.103  0.2644 -0.2981  0.1637
  115XCA     C1 1043   8.478   3.114   7.738  0.3073 -0.1364  0.3454
  115XCA     C2 1044   8.569   3.225   7.344 -0.5667  0.0248 -0.0869
  115XCA     C3 1045   8.559   3.229   6.919  0.1729  0.0201 -0.2015
  115XCA     C4 1046   8.571   3.148   6.475  0.1323  0.2122  0.0145
  115XCA     C5 1047   8.271   3.357   6.251 -0.2978  0.0411  0.0509
  115XCA     C6 1048   8.026   3.161   5.882 -0.0117  0.2600 -0.2266
  116XCA    COO 1049  11.678   1.897   8.680 -0.1010  0.0706  0.5352
  116XCA     C1 1050  11.997   2.139   8.521 -0.0879  0.0867  0.1698
  116XCA     C2 1051  12.148   2.254   8.208  0.0947  0.2039  0.2285
  116XCA     C3 1052  12.267   2.336   7.807  0.1462  0.1735  0.2587
  116XCA     C4 1053  12.156   2.376   7.403  0.2032  0.1704  0.4302
  116XCA     C5 1054  12.237   2.449   6.962 -0.2770 -0.1076  0.0465
  116XCA     C6 1055  12.451   2.352   6.519  0.2997  0.1490 -0.0412
  117CHOL   ROH 1056   8.521   4.934   8.588 -0.1472 -0.1956  0.0427
  117CHOL    R1 1057   8.443   4.943   8.316 -0.3437 -0.0914  0.1002
  117CHOL    R2 1058   8.589   4.821   8.115 -0.2135  0.3957 -0.1172
  117CHOL    R3 1059   8.352   4.702   8.059 -0.0147 -0.0441 -0.0669
  117CHOL    R4 1060   8.493   4.711   7.802 -0.1756  0.4452 -0.1464
  117CHOL    R5 1061   8.292   4.786   7.843 -0.3129  0.0119  0.0330
  117CHOL    C1 1062   8.213   4.535   7.567  0.0331  0.0612 -0.1164
  117CHOL    C2 1063   8.195   4.611   7.206 -0.1119 -0.0640 -0.0732
  118CHOL   ROH 1064   0.814  14.753   6.031 -0.0754 -0.1906 -0.2583
  118CHOL    R1 1065   1.021  14.568   6.089 -0.0926 -0.2049 -0.2436
  118CHOL    R2 1066   1.144  14.557   6.335  0.0190 -0.0852 -0.2944
  118CHOL    R3 1067   1.073  14.295   6.323 -0.0485 -0.0773 -0.1019
  118CHOL    R4 1068   1.253  14.313   6.554  0.2309 -0.0114 -0.3153
  118CHOL    R5 1069   1.272  14.176   6.385  0.0055 -0.0878 -0.2847
  118CHOL    C1 1070   1.250  13.925   6.671  0.2909  0.0390 -0.1467
  118CHOL    C2 1071   1.234  13.584   6.696 -0.4278  0.4426 -0.0701
  119CHOL   ROH 1072   4.434   6.779   7.950 -0.1168 -0.1930  0.1105
  119CHOL    R1 1073   4.276   6.603   8.107  0.0120 -0.2266  0.2041
  119CHOL    R2 1074   4.351   6.523   8.360 -0.0008  0.0883  0.3129
  119CHOL    R3 1075   4.105   6.617   8.427 -0.1377 -0.1192  0.1206
  119CHOL    R4 1076   4.154   6.396   8.614  0.1402  0.2570  0.5101
  119CHOL    R5 1077   3.980   6.421   8.485  0.1163 -0.1951  0.4405
  119CHOL    C1 1078   3.809   6.410   8.826  0.0939  0.1604  0.4445
  119CHOL    C2 1079   3.503   6.152   8.955  0.0146 -0.1183  0.0514
  120PNCE   AM1 1080   2.650   4.380   8.702 -0.2142 -0.0161 -0.2505
  120PNCE   AM2 1081   2.651   4.257   8.266  0.0541 -0.1139 -0.2954
  120PNCE   T1A 1082   2.506   4.695   8.490 -0.1389  0.0355  0.1932
  120PNCE   C2A 1083   2.249   5.049   8.356  0.2085  0.2391  0.2236
  120PNCE   C3A 1084   2.224   5.524   8.457  0.0765  0.2263  0.1426
  120PNCE   C1B 1085   2.563   4.620   7.963  0.2074  0.1263  0.0925
  120PNCE   C2B 1086   2.385   4.915   7.914  0.1800 -0.0776 -0.0859
  120PNCE   C3B 1087   2.259   5.240   7.516 -0.1812  0.0674  0.0352
  120PNCE   D4B 1088   2.270   5.593   7.177 -0.1723  0.0743  0.0465
  120PNCE   C5B 1089   2.226   5.483   6.803 -0.1352 -0.1073  0.1847
  120PNCE   C6B 1090   2.075   5.375   6.431  0.2454  0.0585 -0.1336
  121CHOL   ROH 1091   2.345   0.378   4.503  0.1076  0.2729 -0.0028
  121CHOL    R1 1092   2.401   0.228   4.737 -0.2080  0.0586 -0.0570
  121CHOL    R2 1093   2.577   0.316   4.930 -0.0605 -0.3584  0.0114
  121CHOL    R3 1094   2.365   0.277   5.096 -0.1688 -0.0261 -0.0422
  121CHOL    R4 1095   2.599   0.271   5.272 -0.2524 -0.0965  0.0607
  121CHOL    R5 1096   2.444   0.118   5.257 -0.3854  0.0337  0.1238
  121CHOL    C1 1097   2.412   0.207   5.627 -0.4658  0.3678  0.0390
  121CHOL    C2 1098   2.519  -0.064   5.808  0.0949  0.2343  0.1333
  122XCA    COO 1099   6.944  13.965   8.648  0.1916 -0.0837 -0.0930
  122XCA     C1 1100   6.677  13.876   8.339 -0.2139 -0.0178 -0.1439
  122XCA     C2 1101   6.494  14.211   8.015  0.0773  0.0939  0.1546
  122XCA     C3 1102   6.464  14.392   7.621  0.0843  0.0016  0.0180
  122XCA     C4 1103   6.568  14.811   7.320  0.0411 -0.4752  0.0095
  122XCA     C5 1104   6.812  14.741   6.996  0.1496  0.3197  0.0530
  122XCA     C6 1105   7.042  14.706   6.579  0.1547  0.0360 -0.1310
  123XCA    COO 1106   4.125   1.484   5.294 -0.0159  0.1261  0.1969
  123XCA     C1 1107   4.397   1.402   5.575  0.2584 -0.1092 -0.0436
  123XCA     C2 1108   4.690   1.557   5.838 -0.2738 -0.0007 -0.0383
  123XCA     C3 1109   5.033   1.700   6.093  0.1494  0.2610  0.1272
  123XCA     C4 1110   5.040   2.154   6.134  0.0561  0.1222 -0.2736
  123XCA     C5 1111   4.825   2.468   6.006 -0.2346  0.1441  0.0547
  123XCA     C6 1112   4.907   2.902   5.882 -0.0533 -0.2109 -0.4084
  124PNCE   AM1 1113  13.335  15.667   8.417  0.2091 -0.0602  0.1944
  124PNCE   AM2 1114  13.612  15.426   8.547 -0.0640 -0.1732  0.2622
  124PNCE   T1A 1115  13.262  15.888   7.954 -0.0877  0.1125  0.1072
  124PNCE   C2A 1116  13.024  16.088   7.759 -0.2320  0.2423  0.0670
  124PNCE   C3A 1117  12.712  16.224   7.492 -0.1426 -0.2727 -0.2434
  124PNCE   C1B 1118  13.800  15.393   8.104  0.1482  0.0986  0.1186
  124PNCE   C2B 1119  13.771  15.607   7.658  0.1258 -0.5830  0.1150
  124PNCE   C3B 1120  13.614  15.863   7.315  0.3017 -0.1722  0.4093
  124PNCE   D4B 1121  13.630  15.909   6.917 -0.1650  0.1935 -0.2053
  124PNCE   C5B 1122  13.866  15.591   6.865 -0.0842 -0.0056 -0.2544
  124PNCE   C6B 1123  13.796  15.526   6.446  0.1694  0.0807  0.0186
  125CHOL   ROH 1124   7.803   8.521   6.913  0.0451  0.1753 -0.2045
  125CHOL    R1 1125   7.960   8.653   7.108  0.1080 -0.0110 -0.1261
  125CHOL    R2 1126   7.907   8.911   7.191  0.3105  0.0180 -0.0752
  125CHOL    R3 1127   7.905   8.796   7.438  0.1395 -0.0470 -0.1057
  125CHOL    R4 1128   7.942   9.082   7.490  0.1097 -0.0659 -0.0022
  125CHOL    R5 1129   8.068   8.920   7.562  0.0555 -0.0857  0.0406
  125CHOL    C1 1130   7.961   9.074   7.895 -0.1678 -0.1759  0.0117
  125CHOL    C2 1131   7.921   9.091   8.338  0.2204 -0.2067  0.3408
  126CHOL   ROH 1132   5.916   9.981   9.194 -0.2344 -0.0523 -0.1156
  126CHOL    R1 1133   5.806   9.836   8.977 -0.1353 -0.1169 -0.1238
  126CHOL    R2 1134   5.907   9.853   8.721 -0.0390 -0.1664 -0.0910
  126CHOL    R3 1135   5.922   9.582   8.743 -0.0156 -0.1590 -0.0196
  126CHOL    R4 1136   5.867   9.630   8.459 -0.0650 -0.2419 -0.0226
  126CHOL    R5 1137   5.754   9.501   8.594 -0.0330 -0.2132  0.0306
  126CHOL    C1 1138   5.857   9.246   8.329 -0.0581 -0.2791  0.0843
  126CHOL    C2 1139   5.562   9.047   8.071 -0.2790 -0.2299  0.1489
  127CHOL   ROH 1140   5.436   8.270   9.353 -0.1766  0.0438 -0.0266
  127CHOL    R1 1141   5.389   8.375   9.094  0.0454  0.1130 -0.0415
  127CHOL    R2 1142   5.585   8.382   8.898  0.1159 -0.1773  0.0079
  127CHOL    R3 1143   5.399   8.249   8.752 -0.0476  0.0907 -0.0352
  127CHOL    R4 1144   5.597   8.338   8.556  0.1789 -0.2779  0.0231
  127CHOL    R5 1145   5.382   8.373   8.549  0.2363  0.0720 -0.0712
  127CHOL    C1 1146   5.429   8.187   8.219  0.0620 -0.0848 -0.0085
  127CHOL    C2 1147   5.633   8.094   8.015  0.1287  0.0760 -0.0859
  128PNCE   AM1 1148  11.557   3.677   8.150 -0.0516  0.0332 -0.4931
  128PNCE   AM2 1149  11.351   3.560   7.997  0.0831 -0.0281  0.0505
  128PNCE   T1A 1150  11.558   3.973   7.696 -0.0794 -0.3970  0.0732
  128PNCE   C2A 1151  11.673   4.023   7.324  0.2252  0.0658  0.2820
  128PNCE   C3A 1152  11.946   3.847   7.238  0.0276  0.5674 -0.0273
  128PNCE   C1B 1153  11.322   3.339   7.729  0.1201 -0.1630 -0.0844
  128PNCE   C2B 1154  11.329   2.841   7.657 -0.0275  0.0270 -0.1150
  128PNCE   C3B 1155  11.130   2.595   7.529  0.2735  0.1323  0.4411
  128PNCE   D4B 1156  10.841   2.284   7.247 -0.1816  0.1365  0.1164
  128PNCE   C5B 1157  10.944   1.852   7.388 -0.1245 -0.0937 -0.1976
  128PNCE   C6B 1158  11.009   1.576   7.713  0.0648 -0.0373 -0.1243
  129PNCE   AM1 1159  14.571  12.717   8.476  0.4857  0.0778 -0.0796
  129PNCE   AM2 1160  14.878  12.576   8.456 -0.1919 -0.0405 -0.1087
  129PNCE   T1A 1161  14.206  12.605   8.222 -0.0899 -0.0423  0.1842
  129PNCE   C2A 1162  13.845  12.480   7.965 -0.0217  0.0657 -0.0432
  129PNCE   C3A 1163  13.822  12.342   7.606 -0.0840  0.1464 -0.1851
  129PNCE   C1B 1164  14.675  12.626   8.016 -0.1332 -0.4004 -0.1338
  129PNCE   C2B 1165  14.679  12.773   7.571  0.1443 -0.0007 -0.0654
  129PNCE   C3B 1166  14.783  12.929   7.228  0.0742 -0.0974 -0.1627
  129PNCE   D4B 1167  14.499  12.923   7.003  0.1415  0.0906  0.1505
  129PNCE   C5B 1168  14.351  12.697   6.660 -0.4530 -0.3111  0.2447
  129PNCE   C6B 1169  13.992  12.469   6.498  0.1838  0.0156  0.1541
  130XCA    COO 1170  13.248   7.546   8.791 -0.2460 -0.1006  0.3818
  130XCA     C1 1171  13.116   7.288   8.486 -0.1556 -0.1265 -0.0287
  130XCA     C2 1172  13.126   7.142   8.107  0.0184  0.1086  0.0473
  130XCA     C3 1173  13.076   7.256   7.717  0.0661  0.2417  0.0484
  130XCA     C4 1174  13.344   7.149   7.277  0.1050  0.1805  0.1310
  130XCA     C5 1175  13.593   6.896   7.017  0.0735 -0.0469  0.0885
  130XCA     C6 1176  13.936   6.963   6.703  0.1721  0.0341 -0.2321
  131PNCE   AM1 1177   0.302   0.537   8.513  0.2720  0.2340 -0.1697
  131PNCE   AM2 1178   0.544   0.454   8.729  0.0679  0.2164  0.2823
  131PNCE   T1A 1179   0.313   0.702   8.106  0.1813 -0.0775 -0.1932
  131PNCE   C2A 1180   0.218   0.898   7.773  0.0491  0.0139  0.2058
  131PNCE   C3A 1181  -0.004   0.944   7.407  0.1988  0.2001  0.1211
  131PNCE   C1B 1182   0.836   0.584   8.370 -0.3268  0.1393 -0.4642
  131PNCE   C2B 1183   0.829   0.674   7.907 -0.0650 -0.0464 -0.0905
  131PNCE   C3B 1184   0.651   0.838   7.467 -0.0445 -0.1124 -0.3090
  131PNCE   D4B 1185   0.453   1.178   7.170  0.1098  0.1375 -0.2395
  131PNCE   C5B 1186   0.356   1.264   6.755 -0.1794 -0.2091 -0.0363
  131PNCE   C6B 1187   0.045   1.300   6.661  0.0686  0.1710  0.0523
  132PNCE   AM1 1188   8.484   0.135   8.384 -0.0375 -0.0542  0.0585
  132PNCE   AM2 1189   8.833  -0.031   8.499  0.0366 -0.0459 -0.1954
  132PNCE   T1A 1190   8.348  -0.109   7.978 -0.0501 -0.1232 -0.2476
  132PNCE   C2A 1191   8.498  -0.225   7.662 -0.0420 -0.2130 -0.0636
  132PNCE   C3A 1192   8.763  -0.425   7.245 -0.1570 -0.1883  0.1256
  132PNCE   C1B 1193   8.783  -0.025   8.053  0.0879 -0.1322  0.1369
  132PNCE   C2B 1194   8.893  -0.048   7.562 -0.2081 -0.0286 -0.2317
  132PNCE   C3B 1195   9.166  -0.097   7.182 -0.1429  0.0934 -0.2748
  132PNCE   D4B 1196   9.465  -0.217   7.031  0.2790 -0.1376 -0.1329
  132PNCE   C5B 1197   9.417  -0.297   6.587 -0.4677 -0.1108 -0.0212
  132PNCE   C6B 1198   9.216  -0.084   6.316  0.2452 -0.1069  0.0529
  133PNCE   AM1 1199  11.325  11.421   7.924 -0.0474 -0.1104  0.0183
  133PNCE   AM2 1200  11.488  11.784   7.993 -0.4284 -0.1581  0.1770
  133PNCE   T1A 1201  11.301  11.160   7.523  0.3346 -0.3715  0.0925
  133PNCE   C2A 1202  11.067  11.059   7.176  0.0815  0.1338  0.2526
  133PNCE   C3A 1203  11.180  10.773   6.879 -0.1744 -0.2397  0.0143
  133PNCE   C1B 1204  11.566  11.668   7.504 -0.0781  0.1358  0.2222
  133PNCE   C2B 1205  11.817  11.606   7.061  0.0479  0.1553  0.0815
  133PNCE   C3B 1206  11.825  11.809   6.683 -0.0316  0.1119 -0.0422
  133PNCE   D4B 1207  11.972  12.237   6.473  0.1380  0.0693  0.1353
  133PNCE   C5B 1208  12.060  12.670   6.734  0.1132  0.3165 -0.1442
  133PNCE   C6B 1209  11.873  13.079   6.943  0.0499  0.1274 -0.0611
  134CHOL   ROH 1210   1.307   2.253   7.113  0.1548 -0.0047  0.1075
  134CHOL    R1 1211   1.226   1.994   7.197  0.1747 -0.1245 -0.2279
  134CHOL    R2 1212   1.343   1.763   7.100  0.5942  0.0271 -0.1082
  134CHOL    R3 1213   1.380   1.711   7.364  0.0390 -0.0897 -0.0417
  134CHOL    R4 1214   1.426   1.454   7.231  0.5431  0.0195 -0.0943
  134CHOL    R5 1215   1.288   1.492   7.395  0.1348 -0.1819 -0.3747
  134CHOL    C1 1216   1.508   1.225   7.555 -0.0079 -0.0946 -0.0237
  134CHOL    C2 1217   1.744   0.996   7.748  0.2020  0.1078 -0.0619
  135CHOL   ROH 1218   0.208  15.332   4.562 -0.2904  0.0821  0.0011
  135CHOL    R1 1219   0.337  15.273   4.806 -0.4079 -0.1060  0.0184
  135CHOL    R2 1220   0.529  15.438   4.917 -0.0849 -0.4486 -0.0286
  135CHOL    R3 1221   0.366  15.428   5.135 -0.1086 -0.0696 -0.0191
  135CHOL    R4 1222   0.634  15.474   5.244  0.0464 -0.7192 -0.0382
  135CHOL    R5 1223   0.496  15.314   5.301 -0.3505 -0.4070 -0.0378
  135CHOL    C1 1224   0.543  15.484   5.639  0.1006 -0.5208 -0.0348
  135CHOL    C2 1225   0.485  15.500   6.087 -0.0715 -0.0772 -0.1488
  136CHOL   ROH 1226   9.883  14.494   4.281  0.1300 -0.1445  0.1802
  136CHOL    R1 1227   9.946  14.621   4.526  0.1122 -0.0964  0.1601
  136CHOL    R2 1228  10.202  14.631   4.628  0.1162 -0.0203  0.1459
  136CHOL    R3 1229  10.155  14.899   4.635  0.0508 -0.0310  0.1114
  136CHOL    R4 1230  10.386  14.859   4.811  0.0822  0.0538  0.0881
  136CHOL    R5 1231  10.200  14.961   4.862  0.0638  0.0149  0.0958
  136CHOL    C1 1232  10.448  15.243   4.925  0.0010  0.0868  0.0221
  136CHOL    C2 1233  10.821  15.106   4.956 -0.1344 -0.0260 -0.1335
  137XCA    COO 1234  10.454  15.883   8.396  0.0317 -0.0101 -0.0138
  137XCA     C1 1235  10.523  16.185   8.038 -0.1407  0.3035 -0.2240
  137XCA     C2 1236  10.616  16.276   7.638  0.0693 -0.0215 -0.0630
  137XCA     C3 1237  10.704  16.174   7.199 -0.1998  0.0278 -0.3579
  137XCA     C4 1238  10.857  16.175   6.836 -0.1197  0.1847  0.1981
  137XCA     C5 1239  10.890  16.064   6.425 -0.0876 -0.0564 -0.0532
  137XCA     C6 1240  10.928  15.745   6.035  0.0382 -0.4966  0.1932
  138CHOL   ROH 1241   6.398  14.180   5.956  0.0005  0.1557 -0.3403
  138CHOL    R1 1242   6.190  14.298   6.106  0.0265  0.0063 -0.1816
  138CHOL    R2 1243   5.929  14.311   6.014  0.0010  0.0715 -0.1104
  138CHOL    R3 1244   5.874  14.190   6.252  0.0698 -0.1508 -0.2052
  138CHOL    R4 1245   5.628  14.335   6.182  0.1668  0.2035  0.1746
  138CHOL    R5 1246   5.740  14.350   6.369  0.3420 -0.1412  0.1017
  138CHOL    C1 1247   5.401  14.236   6.503  0.3279  0.0718  0.2515
  138CHOL    C2 1248   5.049  14.060   6.602 -0.2454  0.0859 -0.1659
  139PNCE   AM1 1249   3.447  12.436   8.735  0.0359  0.3021 -0.0352
  139PNCE   AM2 1250   3.131  12.304   8.674 -0.1778  0.2289 -0.1568
  139PNCE   T1A 1251   3.532  12.409   8.222 -0.0630  0.1343 -0.0651
  139PNCE   C2A 1252   3.334  12.589   7.874  0.0938  0.0850 -0.2007
  139PNCE   C3A 1253   2.973  12.748   7.629 -0.3302 -0.1353 -0.0685
  139PNCE   C1B 1254   3.073  12.024   8.322  0.1840 -0.3468  0.3237
  139PNCE   C2B 1255   3.200  11.846   7.974  0.0353 -0.1659 -0.0083
  139PNCE   C3B 1256   3.403  11.601   7.653  0.2006 -0.0633  0.1085
  139PNCE   D4B 1257   3.466  11.576   7.290 -0.0280  0.2643  0.0779
  139PNCE   C5B 1258   3.653  11.869   7.043  0.0580  0.1729 -0.1201
  139PNCE   C6B 1259   3.612  12.214   6.782 -0.0555  0.1860 -0.0426
  140PNCE   AM1 1260   2.486  11.276   9.054 -0.2075 -0.2824 -0.2366
  140PNCE   AM2 1261   2.347  11.000   8.978  0.0547 -0.0437  0.0945
  140PNCE   T1A 1262   2.810  11.269   8.689  0.0585 -0.0489 -0.1687
  140PNCE   C2A 1263   2.767  11.417   8.261  0.1775 -0.0688  0.1447
  140PNCE   C3A 1264   2.894  11.543   7.811  0.2015 -0.0213 -0.1825
  140PNCE   C1B 1265   2.451  10.777   8.561  0.0101  0.3887  0.2794
  140PNCE   C2B 1266   2.418  10.595   8.143  0.1445  0.1841  0.1432
  140PNCE   C3B 1267   2.404  10.295   7.732 -0.3723 -0.0729  0.0394
  140PNCE   D4B 1268   1.976  10.121   7.676  0.1209 -0.2260 -0.1020
  140PNCE   C5B 1269   1.835  10.165   7.272 -0.2080 -0.0146  0.1220
  140PNCE   C6B 1270   1.637  10.538   7.048 -0.2272 -0.3196  0.4650
  141CHOL   ROH 1271   5.335  12.089   5.299 -0.1527  0.1587  0.1187
  141CHOL    R1 1272   5.538  12.150   5.485 -0.1589  0.2305  0.1026
  141CHOL    R2 1273   5.485  12.263   5.732 -0.1978  0.0515  0.1798
  141CHOL    R3 1274   5.625  12.049   5.824  0.0072  0.1171  0.0268
  141CHOL    R4 1275   5.568  12.209   6.063 -0.0121 -0.0349  0.1204
  141CHOL    R5 1276   5.764  12.139   5.998  0.0132  0.1441  0.0059
  141CHOL    C1 1277   5.748  11.976   6.342  0.2883 -0.0237 -0.0579
  141CHOL    C2 1278   5.972  12.111   6.648  0.1866  0.3757  0.2030
  142CHOL   ROH 1279   4.750   6.206   5.742 -0.0969 -0.2406  0.1400
  142CHOL    R1 1280   4.672   6.213   6.014  0.0610 -0.1172  0.1824
  142CHOL    R2 1281   4.853   6.249   6.220  0.1522  0.1978  0.0459
  142CHOL    R3 1282   4.687   6.454   6.287  0.0043  0.0944  0.0041
  142CHOL    R4 1283   4.840   6.399   6.531  0.1286  0.3158 -0.0104
  142CHOL    R5 1284   4.623   6.406   6.513  0.1095  0.1322  0.0471
  142CHOL    C1 1285   4.677   6.678   6.775 -0.0241  0.2874 -0.0824
  142CHOL    C2 1286   5.006   6.739   6.901  0.3136  0.3848  0.0747
  143CHOL   ROH 1287   5.707   4.458   8.383  0.1352 -0.0713 -0.2695
  143CHOL    R1 1288   5.513   4.522   8.188  0.1049 -0.2535 -0.3006
  143CHOL    R2 1289   5.517   4.759   8.046 -0.2073 -0.1558 -0.1546
  143CHOL    R3 1290   5.510   4.593   7.831  0.1294 -0.0423 -0.2599
  143CHOL    R4 1291   5.415   4.851   7.729 -0.2527 -0.1271 -0.1323
  143CHOL    R5 1292   5.313   4.659   7.711  0.0580 -0.2851 -0.2816
  143CHOL    C1 1293   5.350   4.749   7.342  0.0368 -0.0040 -0.2182
  143CHOL    C2 1294   5.588   4.800   7.008 -0.2658 -0.2553  0.0284
  144PNCE   AM1 1295   5.325   5.982   9.162  0.1994  0.1835  0.0376
  144PNCE   AM2 1296   5.462   6.249   9.243 -0.1801 -0.0747 -0.2378
  144PNCE   T1A 1297   5.463   5.823   8.741 -0.1720  0.1831  0.0357
  144PNCE   C2A 1298   5.760   5.741   8.500  0.0437 -0.0403 -0.1693
  144PNCE   C3A 1299   5.820   5.793   8.128 -0.2470 -0.0197  0.0680
  144PNCE   C1B 1300   5.139   6.356   8.819  0.0314  0.0615 -0.3229
  144PNCE   C2B 1301   5.028   6.244   8.481 -0.0826 -0.3129  0.0295
  144PNCE   C3B 1302   5.059   6.062   8.122 -0.0644 -0.3383 -0.1537
  144PNCE   D4B 1303   5.023   6.130   7.678 -0.0242 -0.2391  0.1559
  144PNCE   C5B 1304   4.746   6.038   7.398 -0.4060  0.1681  0.2833
  144PNCE   C6B 1305   4.640   5.781   7.150  0.2835  0.0827  0.0143
  145PNCE   AM1 1306   5.895   8.204   9.213  0.1343  0.3974 -0.2689
  145PNCE   AM2 1307   6.186   8.363   9.138  0.1759 -0.3388  0.0936
  145PNCE   T1A 1308   5.944   8.106   8.762  0.2222 -0.0760 -0.0868
  145PNCE   C2A 1309   6.035   8.231   8.355 -0.0339 -0.2199 -0.1105
  145PNCE   C3A 1310   6.331   8.541   8.166 -0.0207  0.1256 -0.0146
  145PNCE   C1B 1311   6.013   8.633   8.755 -0.1040 -0.1004 -0.2449
  145PNCE   C2B 1312   5.897   8.686   8.373  0.2136 -0.3070 -0.4667
  145PNCE   C3B 1313   5.920   8.819   7.832  0.0279  0.0799  0.0345
  145PNCE   D4B 1314   5.592   8.870   7.504  0.2667 -0.0659  0.1287
  145PNCE   C5B 1315   5.167   8.860   7.616 -0.4095 -0.0277  0.1371
  145PNCE   C6B 1316   4.774   9.023   7.565 -0.0336  0.0362 -0.1630
  146CHOL   ROH 1317  11.372   1.200   8.289  0.1228 -0.3257 -0.2068
  146CHOL    R1 1318  11.312   1.337   8.049  0.0340 -0.2513 -0.1424
  146CHOL    R2 1319  11.508   1.443   7.885 -0.0331 -0.1061 -0.1255
  146CHOL    R3 1320  11.385   1.293   7.695  0.0012 -0.0763 -0.1723
  146CHOL    R4 1321  11.600   1.431   7.552 -0.1621  0.1890 -0.1754
  146CHOL    R5 1322  11.389   1.430   7.499 -0.1879  0.0619 -0.0849
  146CHOL    C1 1323  11.537   1.283   7.179 -0.2051  0.3889 -0.2484
  146CHOL    C2 1324  11.594   1.316   6.845  0.0841 -0.3044  0.0195
  147XCA    COO 1325   5.607   8.984   5.331  0.1692 -0.0093  0.1217
  147XCA     C1 1326   5.375   9.010   5.755 -0.0652 -0.0434 -0.0928
  147XCA     C2 1327   5.228   9.172   6.048 -0.2681  0.3288 -0.1347
  147XCA     C3 1328   5.135   9.265   6.485 -0.2279  0.3246 -0.1885
  147XCA     C4 1329   4.962   9.252   6.812 -0.1594 -0.1275  0.1962
  147XCA     C5 1330   4.742   9.333   7.141  0.3081 -0.2288  0.2252
  147XCA     C6 1331   4.824   9.485   7.512  0.0125  0.1285 -0.1965
  148PNCE   AM1 1332   8.101  13.564   8.441 -0.0537 -0.1293  0.3076
  148PNCE   AM2 1333   8.142  13.239   8.304 -0.1104  0.0675 -0.1678
  148PNCE   T1A 1334   8.192  13.896   8.186  0.0197 -0.0336 -0.2106
  148PNCE   C2A 1335   8.566  14.060   8.160  0.0826  0.1597  0.1018
  148PNCE   C3A 1336   8.706  14.478   8.139  0.1083 -0.2047  0.1476
  148PNCE   C1B 1337   8.189  12.907   7.903  0.0373 -0.5261  0.1398
  148PNCE   C2B 1338   8.226  12.959   7.463 -0.0530  0.0637 -0.1868
  148PNCE   C3B 1339   8.198  13.330   7.135 -0.2185 -0.3297 -0.0872
  148PNCE   D4B 1340   7.880  13.521   7.068  0.0268 -0.0188 -0.2061
  148PNCE   C5B 1341   7.947  13.842   7.194 -0.1882  0.1877 -0.2295
  148PNCE   C6B 1342   7.838  14.215   6.932 -0.3318 -0.0326 -0.1907
  149PNCE   AM1 1343  10.646   8.449   8.492 -0.0585  0.0715 -0.0430
  149PNCE   AM2 1344  10.496   8.352   8.778  0.1691  0.1810 -0.3348
  149PNCE   T1A 1345  10.871   8.185   8.081  0.1049 -0.0159  0.0306
  149PNCE   C2A 1346  11.120   8.293   7.783  0.0731  0.2198  0.0767
  149PNCE   C3A 1347  11.088   8.562   7.404 -0.0944  0.2630  0.3791
  149PNCE   C1B 1348  10.143   8.420   8.429 -0.4340 -0.0720  0.0717
  149PNCE   C2B 1349   9.809   8.428   8.201 -0.1444  0.1684  0.1539
  149PNCE   C3B 1350   9.592   8.474   7.773  0.2719  0.0038  0.1671
  149PNCE   D4B 1351   9.208   8.426   7.437 -0.4088 -0.0356  0.0645
  149PNCE   C5B 1352   9.258   8.598   7.020 -0.0911  0.2825  0.0697
  149PNCE   C6B 1353   9.105   8.406   6.640  0.0110 -0.0872 -0.1264
  150XCA    COO 1354   9.195  14.428   8.847 -0.0826 -0.3703  0.0046
  150XCA     C1 1355   9.063  14.241   8.385 -0.0801 -0.1022  0.0646
  150XCA     C2 1356   9.038  14.067   8.037  0.2741 -0.0164 -0.1559
  150XCA     C3 1357   8.802  14.180   7.675  0.1165 -0.1411 -0.1854
  150XCA     C4 1358   8.611  14.459   7.462 -0.2274  0.0039  0.0312
  150XCA     C5 1359   8.707  14.853   7.405  0.0991 -0.0604 -0.0580
  150XCA     C6 1360   9.031  14.989   7.393  0.0736 -0.2295 -0.1993
  151PNCE   AM1 1361   1.757  11.948   8.643 -0.2620 -0.3687 -0.1046
  151PNCE   AM2 1362   1.816  12.210   8.898  0.1562  0.2186 -0.0761
  151PNCE   T1A 1363   1.910  11.561   8.419 -0.0658  0.4552  0.1000
  151PNCE   C2A 1364   2.048  11.338   8.119 -0.0487 -0.0200  0.0289
  151PNCE   C3A 1365   2.376  11.452   7.795  0.2771  0.0340  0.2482
  151PNCE   C1B 1366   2.093  12.263   8.480 -0.1031 -0.2641  0.1595
  151PNCE   C2B 1367   2.366  12.405   8.158 -0.2110 -0.3178 -0.1042
  151PNCE   C3B 1368   2.537  12.419   7.765  0.0758 -0.0353 -0.1179
  151PNCE   D4B 1369   2.449  12.716   7.341  0.1664 -0.1197  0.2266
  151PNCE   C5B 1370   2.283  13.108   7.386  0.2059 -0.2964 -0.4521
  151PNCE   C6B 1371   2.090  13.578   7.239  0.1071  0.1978  0.1324
  152PNCE   AM1 1372  13.865   3.796   8.889  0.1130 -0.1535 -0.0922
  152PNCE   AM2 1373  14.167   3.522   8.899  0.2985 -0.4661 -0.2639
  152PNCE   T1A 1374  13.947   4.010   8.474 -0.1896 -0.2150 -0.1470
  152PNCE   C2A 1375  14.133   4.241   8.108 -0.0188  0.0379  0.0794
  152PNCE   C3A 1376  14.240   4.570   7.846  0.1468  0.0435  0.1721
  152PNCE   C1B 1377  14.114   3.534   8.498 -0.0267 -0.0660  0.0232
  152PNCE   C2B 1378  14.089   3.767   8.092 -0.2185  0.0735  0.0715
  152PNCE   C3B 1379  14.173   3.936   7.697  0.1902 -0.0320  0.1764
  152PNCE   D4B 1380  13.935   4.051   7.225  0.0984  0.0825  0.0852
  152PNCE   C5B 1381  13.425   4.136   7.261  0.1562 -0.1296 -0.0057
  152PNCE   C6B 1382  13.165   4.305   7.194  0.0914  0.1214 -0.1149
  153XCA    COO 1383   9.200   0.150   8.044  0.1769 -0.0612 -0.4274
  153XCA     C1 1384   9.248   0.279   7.563  0.0070  0.1103  0.1645
  153XCA     C2 1385   9.465   0.338   7.144  0.1220  0.0987  0.1456
  153XCA     C3 1386   9.903   0.443   6.959  0.2253  0.0292 -0.0603
  153XCA     C4 1387  10.085   0.488   6.568 -0.1923  0.0094  0.2514
  153XCA     C5 1388  10.381   0.572   6.200  0.1025 -0.1381 -0.1043
  153XCA     C6 1389  10.348   0.677   5.798 -0.2239  0.1698  0.0922
  154CHOL   ROH 1390  11.424  14.754   6.422 -0.0626  0.2056 -0.0942
  154CHOL    R1 1391  11.245  14.599   6.267  0.0538  0.0584 -0.0828
  154CHOL    R2 1392  11.040  14.712   6.121 -0.0797 -0.1136 -0.0224
  154CHOL    R3 1393  11.153  14.573   5.916  0.0079  0.0235 -0.0700
  154CHOL    R4 1394  10.889  14.652   5.815 -0.1007 -0.2018  0.0041
  154CHOL    R5 1395  10.971  14.450   5.820  0.0932 -0.1329 -0.0454
  154CHOL    C1 1396  10.908  14.487   5.445 -0.0308 -0.1244 -0.0252
  154CHOL    C2 1397  10.657  14.702   5.172 -0.0517 -0.1014  0.0971
  155PNCE   AM1 1398   3.770   8.713   9.687 -0.2158 -0.1632 -0.2524
  155PNCE   AM2 1399   4.075   8.654   9.702  0.0767 -0.0926 -0.0280
  155PNCE   T1A 1400   3.715   8.444   9.372  0.1016  0.4245 -0.1784
  155PNCE   C2A 1401   3.607   8.218   9.103  0.2941  0.6329 -0.0133
  155PNCE   C3A 1402   3.501   8.147   8.686  0.3512  0.0215 -0.0297
  155PNCE   C1B 1403   4.032   8.912   9.233  0.1180  0.0467 -0.1966
  155PNCE   C2B 1404   3.875   8.883   8.813  0.2455  0.1473 -0.0964
  155PNCE   C3B 1405   3.590   8.692   8.530  0.0746 -0.0833  0.2641
  155PNCE   D4B 1406   3.392   8.490   8.204  0.0015 -0.3372 -0.1116
  155PNCE   C5B 1407   3.121   8.563   7.952 -0.0318  0.0659 -0.3540
  155PNCE   C6B 1408   2.808   8.762   7.615 -0.0053 -0.4106 -0.0876
  156PNCE   AM1 1409   2.394   7.095   9.845  0.0516  0.0134 -0.1215
  156PNCE   AM2 1410   2.404   6.787   9.900  0.3183 -0.0575 -0.0497
  156PNCE   T1A 1411   2.616   7.424   9.617 -0.1837  0.1009 -0.0706
  156PNCE   C2A 1412   2.528   7.615   9.163 -0.1294  0.1287 -0.3060
  156PNCE   C3A 1413   2.663   7.778   8.788 -0.0803 -0.2546 -0.1488
  156PNCE   C1B 1414   2.525   6.510   9.488 -0.2062 -0.0104 -0.1584
  156PNCE   C2B 1415   2.616   6.521   9.006 -0.2641  0.2269 -0.2865
  156PNCE   C3B 1416   2.636   6.631   8.517  0.1452  0.1940 -0.1942
  156PNCE   D4B 1417   2.350   6.929   8.282 -0.0215 -0.2487 -0.0717
  156PNCE   C5B 1418   2.535   7.200   8.000  0.0626 -0.1092 -0.1788
  156PNCE   C6B 1419   2.980   7.200   7.958 -0.2373 -0.0504  0.1240
  157CHOL   ROH 1420  12.114   2.862   5.564 -0.1957  0.3116 -0.1848
  157CHOL    R1 1421  12.270   3.037   5.722 -0.1818  0.1137  0.0259
  157CHOL    R2 1422  12.331   3.295   5.642  0.0782  0.1075  0.2012
  157CHOL    R3 1423  12.224   3.361   5.883 -0.0573  0.0707  0.1522
  157CHOL    R4 1424  12.453   3.541   5.852  0.0164  0.0183  0.3441
  157CHOL    R5 1425  12.413   3.409   6.021 -0.1278 -0.0191  0.2856
  157CHOL    C1 1426  12.423   3.746   6.200 -0.1469 -0.0683  0.3813
  157CHOL    C2 1427  12.594   3.817   6.491  0.1613  0.1966 -0.1133
  158XCA    COO 1428   8.242   8.823   8.771  0.1743  0.1546  0.0690
  158XCA     C1 1429   8.082   8.607   8.406 -0.0502  0.1888  0.0138
  158XCA     C2 1430   8.124   8.601   7.958 -0.0051 -0.0330  0.1497
  158XCA     C3 1431   8.029   8.320   7.507 -0.0987  0.0475 -0.0875
  158XCA     C4 1432   8.261   8.227   7.140 -0.0934 -0.3810  0.0332
  158XCA     C5 1433   8.362   7.864   6.836  0.0421  0.0271 -0.1264
  158XCA     C6 1434   8.406   7.548   6.542 -0.1326  0.1296  0.0472
  159PNCE   AM1 1435  13.005   6.005   8.830  0.2585 -0.2977 -0.0991
  159PNCE   AM2 1436  13.064   5.680   8.962 -0.0315  0.0295  0.3797
  159PNCE   T1A 1437  13.398   6.012   8.712  0.0879 -0.1371 -0.0661
  159PNCE   C2A 1438  13.745   6.070   8.417  0.1683 -0.1517  0.0142
  159PNCE   C3A 1439  13.988   5.706   8.390  0.1877 -0.0352 -0.0931
  159PNCE   C1B 1440  13.193   5.523   8.627  0.1821  0.2584 -0.0323
  159PNCE   C2B 1441  13.185   5.304   8.195  0.1361  0.1812  0.2287
  159PNCE   C3B 1442  13.411   5.471   7.855  0.1991  0.0228  0.0950
  159PNCE   D4B 1443  13.671   5.536   7.558 -0.0068 -0.2439 -0.0924
  159PNCE   C5B 1444  13.693   5.337   7.193  0.1779 -0.1407  0.1602
  159PNCE   C6B 1445  13.864   4.957   6.960 -0.1880  0.2742  0.2557
  160XCA    COO 1446   7.116  14.684   4.667 -0.0186  0.0035  0.0239
  160XCA     C1 1447   7.467  14.616   4.984 -0.4432 -0.0923 -0.1311
  160XCA     C2 1448   7.452  14.488   5.401 -0.4104  0.1664  0.0634
  160XCA     C3 1449   7.613  14.624   5.703  0.0692 -0.0451 -0.0940
  160XCA     C4 1450   7.528  14.651   6.172 -0.2250  0.0908 -0.0303
  160XCA     C5 1451   7.488  14.415   6.636  0.0189 -0.1108 -0.1549
  160XCA     C6 1452   7.142  14.316   6.912  0.0263 -0.3046  0.5546
  161CHOL   ROH 1453   7.261   6.832   8.374 -0.0141  0.0721  0.0171
  161CHOL    R1 1454   7.316   6.704   8.127  0.0067  0.0666  0.0250
  161CHOL    R2 1455   7.139   6.709   7.914 -0.0634 -0.1074  0.0792
  161CHOL    R3 1456   7.355   6.806   7.780 -0.1768  0.0306 -0.0081
  161CHOL    R4 1457   7.207   6.652   7.580 -0.1323 -0.1171  0.0666
  161CHOL    R5 1458   7.417   6.628   7.631 -0.0950  0.0473  0.0030
  161CHOL    C1 1459   7.449   6.708   7.260 -0.2788  0.0067 -0.0228
  161CHOL    C2 1460   7.574   6.403   7.048 -0.2354  0.0747  0.2483
  162CHOL   ROH 1461   1.890   3.428   8.314 -0.0133 -0.0235  0.0473
  162CHOL    R1 1462   1.767   3.490   8.067 -0.0023 -0.1487  0.0100
  162CHOL    R2 1463   1.764   3.746   7.963 -0.1279 -0.1744 -0.0467
  162CHOL    R3 1464   1.873   3.624   7.745 -0.0181 -0.1608 -0.0006
  162CHOL    R4 1465   1.623   3.742   7.647 -0.0441 -0.2774 -0.0842
  162CHOL    R5 1466   1.684   3.534   7.627  0.0487 -0.2564 -0.0382
  162CHOL    C1 1467   1.642   3.625   7.260  0.1078 -0.3246 -0.0627
  162CHOL    C2 1468   1.842   3.643   7.019  0.0218 -0.0284  0.1729
  163CHOL   ROH 1469  11.123   3.750   5.657 -0.0186  0.2823  0.0691
  163CHOL    R1 1470  10.925   3.757   5.859  0.0717  0.0361  0.1725
  163CHOL    R2 1471  10.716   3.939   5.856  0.0596  0.0403  0.4854
  163CHOL    R3 1472  10.564   3.714   5.877  0.0815  0.0066  0.2820
  163CHOL    R4 1473  10.412   3.920   6.019  0.0060 -0.1128  0.3671
  163CHOL    R5 1474  10.471   3.725   6.097  0.0029 -0.1555  0.2556
  163CHOL    C1 1475  10.092   3.698   6.134 -0.0045 -0.2337  0.1074
  163CHOL    C2 1476   9.721   3.758   6.115  0.2660 -0.0185  0.1289
  164CHOL   ROH 1477   2.227   4.300   8.521  0.1683 -0.0800 -0.0909
  164CHOL    R1 1478   2.220   4.343   8.241  0.1086 -0.0923 -0.0918
  164CHOL    R2 1479   1.984   4.380   8.102  0.0744 -0.1353 -0.0505
  164CHOL    R3 1480   2.107   4.606   8.017  0.0233 -0.1189 -0.0797
  164CHOL    R4 1481   1.891   4.563   7.825  0.0423 -0.1943 -0.0785
  164CHOL    R5 1482   2.102   4.591   7.778  0.0346 -0.1518 -0.0759
  164CHOL    C1 1483   1.953   4.883   7.583 -0.0243 -0.2132 -0.1221
  164CHOL    C2 1484   1.867   5.006   7.249  0.0315 -0.4254 -0.0694
  165CHOL   ROH 1485   8.536   1.348   7.108 -0.0790 -0.2242 -0.1554
  165CHOL    R1 1486   8.529   1.078   7.027 -0.0216 -0.2214 -0.1703
  165CHOL    R2 1487   8.532   1.002   6.761  0.0222 -0.2073 -0.1742
  165CHOL    R3 1488   8.745   0.852   6.839  0.0399 -0.1732 -0.1574
  165CHOL    R4 1489   8.591   0.675   6.665  0.1113 -0.1811 -0.2106
  165CHOL    R5 1490   8.656   0.632   6.868  0.0831 -0.1965 -0.2056
  165CHOL    C1 1491   8.824   0.344   6.684  0.1799 -0.1338 -0.2159
  165CHOL    C2 1492   9.223   0.118   6.781  0.0507 -0.2247 -0.0393
  166CHOL   ROH 1493   1.093  14.804   8.125  0.0704  0.3718  0.2341
  166CHOL    R1 1494   1.206  14.951   7.911  0.0960  0.1522  0.0924
  166CHOL    R2 1495   1.338  15.191   7.949  0.0395  0.2252 -0.1457
  166CHOL    R3 1496   1.538  15.065   7.815  0.0984  0.1078  0.0488
  166CHOL    R4 1497   1.597  15.350   7.786  0.1132  0.0820 -0.1694
  166CHOL    R5 1498   1.579  15.204   7.625  0.1836 -0.0553 -0.0535
  166CHOL    C1 1499   1.936  15.325   7.565  0.2114 -0.1115 -0.0006
  166CHOL    C2 1500   2.054  15.471   7.261  0.0810  0.0437  0.0738
  167PNCE   AM1 1501   6.755  13.397   8.406 -0.0920  0.2219 -0.0950
  167PNCE   AM2 1502   6.684  13.091   8.401  0.2222 -0.0920 -0.2497
  167PNCE   T1A 1503   6.715  13.489   8.042  0.1277  0.0201 -0.1457
  167PNCE   C2A 1504   6.403  13.565   7.745  0.1320  0.3511 -0.2190
  167PNCE   C3A 1505   5.970  13.708   7.618 -0.0478  0.0006 -0.0957
  167PNCE   C1B 1506   6.352  13.106   8.096  0.2060 -0.3887  0.0830
  167PNCE   C2B 1507   6.112  12.912   7.877  0.1964  0.0085 -0.2712
  167PNCE   C3B 1508   5.962  13.126   7.632 -0.1077 -0.2164 -0.1887
  167PNCE   D4B 1509   5.743  13.363   7.346 -0.1152 -0.1832 -0.0839
  167PNCE   C5B 1510   5.544  13.261   6.954 -0.1412  0.3570 -0.2366
  167PNCE   C6B 1511   5.358  13.174   6.486  0.2939 -0.1864 -0.1066
  168CHOL   ROH 1512   0.043   5.677   9.018  0.0331 -0.0198  0.0868
  168CHOL    R1 1513  -0.040   5.737   8.754  0.1106  0.0526  0.0776
  168CHOL    R2 1514   0.123   5.865   8.572  0.2086 -0.0012  0.1211
  168CHOL    R3 1515   0.066   5.649   8.417  0.1341  0.0419  0.0891
  168CHOL    R4 1516   0.129   5.862   8.227  0.2778  0.0210  0.1224
  168CHOL    R5 1517  -0.051   5.740   8.229  0.2196  0.1121  0.0730
  168CHOL    C1 1518   0.079   5.658   7.880  0.2481  0.0744  0.0931
  168CHOL    C2 1519   0.053   5.726   7.362  0.1147  0.2105 -0.2091
  169XCA    COO 1520  15.542   9.814   9.179  0.3182  0.1009 -0.3880
  169XCA     C1 1521  15.403  10.051   8.836  0.1063 -0.2840  0.2161
  169XCA     C2 1522  15.237   9.956   8.440  0.1770  0.1687  0.3006
  169XCA     C3 1523  15.282   9.891   8.102  0.0288 -0.1814 -0.1314
  169XCA     C4 1524  15.154   9.971   7.658  0.2504 -0.1349  0.2193
  169XCA     C5 1525  15.410   9.909   7.294 -0.0071 -0.2080  0.0481
  169XCA     C6 1526  15.105   9.823   6.925 -0.1535  0.0665  0.0419
  170CHOL   ROH 1527   4.184  11.850   8.939 -0.2334 -0.0308 -0.0644
  170CHOL    R1 1528   4.091  11.908   8.678 -0.1368 -0.0888 -0.1113
  170CHOL    R2 1529   4.262  11.944   8.464 -0.0503  0.0327 -0.0183
  170CHOL    R3 1530   4.109  11.750   8.351  0.1407 -0.0691 -0.1093
  170CHOL    R4 1531   4.284  11.844   8.134  0.1017  0.1641 -0.0501
  170CHOL    R5 1532   4.066  11.831   8.129  0.1085 -0.0291 -0.0916
  170CHOL    C1 1533   4.153  11.603   7.835  0.3695  0.1449 -0.1543
  170CHOL    C2 1534   3.997  11.794   7.408 -0.1040 -0.1008  0.0611
  171XCA    COO 1535   3.774   9.240   5.406 -0.1197  0.0790 -0.2406
  171XCA     C1 1536   3.955   9.020   5.710  0.2117  0.1870  0.0599
  171XCA     C2 1537   4.141   9.146   6.112 -0.0793 -0.0045 -0.1284
  171XCA     C3 1538   4.115   9.157   6.499  0.0308  0.0165 -0.0784
  171XCA     C4 1539   4.468   9.063   6.750  0.0433  0.2727  0.0969
  171XCA     C5 1540   4.654   8.835   7.092 -0.0395 -0.2061 -0.0908
  171XCA     C6 1541   4.753   8.534   7.351  0.0099  0.1861 -0.2216
  172PNCE   AM1 1542  12.543  12.597   8.116 -0.3176  0.0060  0.1611
  172PNCE   AM2 1543  12.670  12.930   8.046 -0.1043  0.0740 -0.3797
  172PNCE   T1A 1544  12.463  12.643   7.606  0.1238  0.0774  0.0826
  172PNCE   C2A 1545  12.126  12.812   7.340 -0.3397 -0.1452  0.1739
  172PNCE   C3A 1546  11.813  13.137   7.445 -0.3554 -0.0697  0.0323
  172PNCE   C1B 1547  13.051  12.705   8.205  0.0031  0.0336 -0.1345
  172PNCE   C2B 1548  13.357  12.465   7.933  0.3667 -0.1240 -0.1354
  172PNCE   C3B 1549  13.338  12.177   7.440  0.1515 -0.1432  0.2881
  172PNCE   D4B 1550  13.595  12.139   7.048  0.0725  0.0877  0.0822
  172PNCE   C5B 1551  13.495  12.321   6.738  0.1550  0.0352 -0.0087
  172PNCE   C6B 1552  13.408  12.481   6.408  0.3320  0.1913 -0.0845
  173PNCE   AM1 1553   6.291  10.856   8.475  0.3412  0.0717  0.1762
  173PNCE   AM2 1554   6.112  10.777   8.695  0.0587 -0.0015  0.0673
  173PNCE   T1A 1555   6.466  10.896   8.106  0.1943  0.0293  0.0165
  173PNCE   C2A 1556   6.545  10.856   7.622 -0.0144 -0.2285  0.4445
  173PNCE   C3A 1557   6.532  10.580   7.316  0.2517 -0.0797  0.0731
  173PNCE   C1B 1558   5.992  10.444   8.432  0.0047  0.2090  0.3907
  173PNCE   C2B 1559   5.733  10.430   8.087  0.2399  0.1030  0.2021
  173PNCE   C3B 1560   5.451  10.745   7.800  0.2522 -0.4025 -0.3389
  173PNCE   D4B 1561   5.236  10.929   7.380 -0.0198  0.3264 -0.0562
  173PNCE   C5B 1562   4.958  11.158   7.443 -0.1154 -0.0992  0.2821
  173PNCE   C6B 1563   4.544  11.057   7.259 -0.0400  0.4029 -0.2269
  174CHOL   ROH 1564  10.685   0.105   3.858  0.0915  0.1049 -0.0307
  174CHOL    R1 1565  10.671   0.016   4.126  0.0492  0.0729 -0.0436
  174CHOL    R2 1566  10.445   0.048   4.282  0.0351  0.0801 -0.0669
  174CHOL    R3 1567  10.470  -0.221   4.316 -0.0013  0.0727 -0.0964
  174CHOL    R4 1568  10.256  -0.142   4.500  0.0860  0.1013 -0.0040
  174CHOL    R5 1569  10.436  -0.254   4.551  0.0864  0.0634 -0.0840
  174CHOL    C1 1570  10.169  -0.504   4.660  0.0815  0.1069  0.0047
  174CHOL    C2 1571  10.025  -0.443   5.023  0.1100  0.2571 -0.0343
  175XCA    COO 1572  10.098  11.290   8.314 -0.1265  0.0369 -0.0967
  175XCA     C1 1573   9.953  10.961   8.013 -0.1266  0.3338 -0.0866
  175XCA     C2 1574   9.861  10.581   7.913 -0.0854  0.1594  0.0502
  175XCA     C3 1575   9.575  10.191   7.745  0.0172 -0.3477 -0.1835
  175XCA     C4 1576   9.282  10.064   7.585 -0.0231 -0.2059 -0.1760
  175XCA     C5 1577   9.038   9.688   7.607 -0.3676  0.1481 -0.1673
  175XCA     C6 1578   8.914   9.286   7.644 -0.3380  0.1131 -0.2507
  176CHOL   ROH 1579   7.942   9.837   7.990 -0.0030 -0.2931 -0.0344
  176CHOL    R1 1580   8.034  10.002   7.780 -0.0192 -0.1985  0.0323
  176CHOL    R2 1581   8.282   9.971   7.664 -0.0075 -0.1154  0.0307
  176CHOL    R3 1582   8.137   9.957   7.434  0.0038 -0.0518  0.0199
  176CHOL    R4 1583   8.415   9.914   7.349  0.0009 -0.0608  0.0243
  176CHOL    R5 1584   8.276  10.062   7.270  0.0209 -0.0313  0.0493
  176CHOL    C1 1585   8.355   9.868   6.951  0.0164  0.0306  0.0106
  176CHOL    C2 1586   8.467   9.740   6.610 -0.0461  0.3079 -0.1994
  177CHOL   ROH 1587  12.919  13.670   5.920 -0.1067  0.0745  0.1127
  177CHOL    R1 1588  12.638  13.701   5.938 -0.0889  0.1889  0.2042
  177CHOL    R2 1589  12.465  13.487   5.958 -0.1903  0.2445 -0.0258
  177CHOL    R3 1590  12.378  13.619   6.179 -0.0811  0.0187  0.1550
  177CHOL    R4 1591  12.136  13.497   6.064 -0.2157  0.5238 -0.1246
  177CHOL    R5 1592  12.165  13.708   6.114  0.0571  0.4136  0.2178
  177CHOL    C1 1593  11.863  13.626   6.333 -0.1280  0.4745 -0.0123
  177CHOL    C2 1594  11.546  13.723   6.207  0.1025  0.0010  0.1825
  178CHOL   ROH 1595  15.892   7.191   9.320 -0.1776 -0.0510 -0.0814
  178CHOL    R1 1596  15.699   7.221   9.115 -0.0963 -0.1729 -0.1772
  178CHOL    R2 1597  15.705   7.430   8.934 -0.1863 -0.1202 -0.1212
  178CHOL    R3 1598  15.699   7.229   8.751  0.0925 -0.0824 -0.1762
  178CHOL    R4 1599  15.661   7.475   8.595 -0.2107 -0.0876 -0.1136
  178CHOL    R5 1600  15.532   7.298   8.593  0.0166 -0.2564 -0.1736
  178CHOL    C1 1601  15.629   7.312   8.224  0.0370 -0.0331 -0.1610
  178CHOL    C2 1602  15.441   7.359   7.864  0.1150 -0.2104 -0.2083
  179XCA    COO 1603  12.671  12.067   8.363  0.0595  0.0701  0.2023
  179XCA     C1 1604  12.922  12.198   7.908  0.0794 -0.0324  0.1136
  179XCA     C2 1605  12.909  12.644   7.694  0.1566  0.0752 -0.0782
  179XCA     C3 1606  12.948  12.669   7.325 -0.2397 -0.1527 -0.3091
  179XCA     C4 1607  13.151  12.798   6.958  0.0775  0.1859 -0.1017
  179XCA     C5 1608  13.196  13.207   6.621  0.0506 -0.1442 -0.1566
  179XCA     C6 1609  13.482  13.257   6.283  0.2330 -0.1469 -0.0138
  180XCA    COO 1610   1.932  13.655   8.485  0.3768 -0.0078 -0.1797
  180XCA     C1 1611   1.785  13.674   8.093  0.1168  0.0150  0.2757
  180XCA     C2 1612   1.775  13.387   7.666 -0.0600  0.0683  0.0109
  180XCA     C3 1613   1.757  13.099   7.274  0.0735 -0.1671 -0.4182
  180XCA     C4 1614   2.064  13.092   6.931  0.2192 -0.1911  0.0890
  180XCA     C5 1615   2.553  12.955   6.756 -0.1270 -0.0235  0.0152
  180XCA     C6 1616   2.854  12.770   6.969 -0.0795 -0.0018  0.0655
  181CHOL   ROH 1617   3.823   5.253   8.808  0.1870  0.2383  0.0017
  181CHOL    R1 1618   3.598   5.319   8.649  0.1881 -0.0311 -0.1175
  181CHOL    R2 1619   3.457   5.554   8.683 -0.1131 -0.1971 -0.1911
  181CHOL    R3 1620   3.508   5.584   8.417 -0.0076 -0.1376 -0.1650
  181CHOL    R4 1621   3.323   5.802   8.482 -0.0502 -0.1667 -0.1965
  181CHOL    R5 1622   3.299   5.655   8.324  0.0256 -0.1350 -0.2367
  181CHOL    C1 1623   3.293   5.975   8.117  0.0855 -0.0931 -0.1749
  181CHOL    C2 1624   3.042   6.238   8.262 -0.0128  0.2327  0.0504
  182CHOL   ROH 1625  14.588  10.748   4.665  0.1490 -0.1444 -0.0073
  182CHOL    R1 1626  14.427  10.794   4.894  0.1024  0.0379 -0.0744
  182CHOL    R2 1627  14.534  10.849   5.143  0.0604 -0.0516 -0.0341
  182CHOL    R3 1628  14.373  11.067   5.128  0.2880  0.1140 -0.1194
  182CHOL    R4 1629  14.453  11.054   5.409 -0.1822 -0.2018  0.0106
  182CHOL    R5 1630  14.250  11.065   5.333 -0.0536  0.0525 -0.3190
  182CHOL    C1 1631  14.255  11.379   5.549 -0.1097 -0.1339 -0.0435
  182CHOL    C2 1632  14.108  11.572   5.807  0.1948 -0.1682  0.0986
  183PNCE   AM1 1633   8.167  15.336   8.590  0.0378  0.1304  0.0506
  183PNCE   AM2 1634   8.073  15.004   8.643  0.0994  0.0583  0.0070
  183PNCE   T1A 1635   8.023  15.425   8.181  0.0519 -0.1127 -0.2590
  183PNCE   C2A 1636   7.951  15.606   7.768 -0.0421  0.2687 -0.1365
  183PNCE   C3A 1637   7.664  15.616   7.514  0.0144 -0.2941  0.1738
  183PNCE   C1B 1638   7.836  14.927   8.185 -0.2709 -0.1142  0.1355
  183PNCE   C2B 1639   7.789  15.140   7.804  0.1237  0.0160 -0.1754
  183PNCE   C3B 1640   7.564  15.163   7.331 -0.2220  0.0249 -0.2607
  183PNCE   D4B 1641   7.527  15.505   7.012 -0.0587  0.2777  0.0684
  183PNCE   C5B 1642   7.319  15.424   6.617  0.0838 -0.2489  0.0928
  183PNCE   C6B 1643   7.271  15.104   6.315  0.0490 -0.4201  0.2254
  184PNCE   AM1 1644  15.163   4.426   8.730  0.0237 -0.2651  0.0609
  184PNCE   AM2 1645  15.109   4.156   8.691  0.1793 -0.3510 -0.2773
  184PNCE   T1A 1646  15.008   4.724   8.465  0.0734 -0.2842 -0.1550
  184PNCE   C2A 1647  14.842   5.102   8.293  0.0475 -0.0699  0.1099
  184PNCE   C3A 1648  14.599   5.397   8.460 -0.1422 -0.1516 -0.1883
  184PNCE   C1B 1649  14.955   4.157   8.249  0.4411  0.2061  0.1362
  184PNCE   C2B 1650  15.012   4.359   7.875  0.2656  0.0503  0.1301
  184PNCE   C3B 1651  14.757   4.632   7.670  0.0327  0.3318  0.2073
  184PNCE   D4B 1652  14.520   4.854   7.283  0.1166  0.3886 -0.1968
  184PNCE   C5B 1653  14.235   4.598   7.002 -0.0661 -0.0700  0.3031
  184PNCE   C6B 1654  13.792   4.446   6.891 -0.1773  0.2823  0.2464
  185PNCE   AM1 1655  12.390  10.951   8.227 -0.0341 -0.0080  0.0177
  185PNCE   AM2 1656  12.084  11.022   8.200  0.0980 -0.3527  0.1094
  185PNCE   T1A 1657  12.626  10.998   7.780  0.0975  0.1406 -0.0127
  185PNCE   C2A 1658  12.654  11.022   7.374 -0.0540  0.0259  0.0322
  185PNCE   C3A 1659  12.471  10.993   6.920  0.0104  0.2131  0.2682
  185PNCE   C1B 1660  12.116  10.923   7.707 -0.4391  0.1949  0.0110
  185PNCE   C2B 1661  12.126  10.912   7.255 -0.1061  0.0762  0.1361
  185PNCE   C3B 1662  12.073  10.675   6.974 -0.0121  0.0045 -0.1128
  185PNCE   D4B 1663  12.157  10.703   6.640 -0.0702  0.1946  0.3090
  185PNCE   C5B 1664  12.264  11.111   6.434 -0.1749  0.3507  0.2426
  185PNCE   C6B 1665  12.597  11.388   6.345  0.1018  0.1516  0.0150
  186PNCE   AM1 1666   4.199   7.626   9.491 -0.2715 -0.0928  0.2986
  186PNCE   AM2 1667   4.417   7.347   9.383  0.0869 -0.1189  0.1272
  186PNCE   T1A 1668   3.940   7.505   9.221 -0.0666  0.0523  0.0485
  186PNCE   C2A 1669   3.918   7.379   8.810  0.1037  0.0189 -0.2558
  186PNCE   C3A 1670   4.292   7.469   8.405  0.0693 -0.2663 -0.1324
  186PNCE   C1B 1671   4.382   7.403   8.943 -0.0285 -0.1678 -0.0611
  186PNCE   C2B 1672   4.552   7.736   8.676 -0.1220 -0.0687 -0.0822
  186PNCE   C3B 1673   4.740   7.818   8.332  0.0431  0.0281  0.3296
  186PNCE   D4B 1674   4.869   8.016   7.889 -0.3019 -0.0643  0.3821
  186PNCE   C5B 1675   4.906   8.501   7.921  0.0296  0.1360 -0.0592
  186PNCE   C6B 1676   5.072   8.992   8.119 -0.1042 -0.1219 -0.2047
  187PNCE   AM1 1677   6.166   9.308   5.194  0.1494 -0.0205  0.1094
  187PNCE   AM2 1678   6.149   9.069   5.459 -0.0865 -0.0813 -0.2362
  187PNCE   T1A 1679   6.362   9.471   5.655 -0.1101 -0.0220  0.0572
  187PNCE   C2A 1680   6.706   9.453   6.031 -0.1302 -0.1321  0.1044
  187PNCE   C3A 1681   6.897   9.551   6.444  0.0080 -0.0321  0.0885
  187PNCE   C1B 1682   6.280   8.961   5.884 -0.0378 -0.0693 -0.0520
  187PNCE   C2B 1683   6.435   8.987   6.192  0.1659  0.1273  0.3836
  187PNCE   C3B 1684   6.139   8.819   6.534  0.2917 -0.1719 -0.0030
  187PNCE   D4B 1685   5.767   8.623   6.662  0.0145 -0.1525 -0.0667
  187PNCE   C5B 1686   5.363   8.784   6.763  0.3144 -0.1751 -0.2861
  187PNCE   C6B 1687   5.135   8.549   7.070  0.3792 -0.0535  0.0362
  188XCA    COO 1688  10.703   9.686   8.190  0.2481 -0.1905  0.1949
  188XCA     C1 1689  10.421   9.707   7.796 -0.0875  0.1471 -0.0448
  188XCA     C2 1690  10.512   9.727   7.293  0.4570 -0.0324 -0.3034
  188XCA     C3 1691  10.541   9.502   6.998  0.1099  0.2269 -0.2230
  188XCA     C4 1692  10.829   9.218   6.852  0.0025  0.1234 -0.1017
  188XCA     C5 1693  11.053   8.798   6.865 -0.0110 -0.0228 -0.1842
  188XCA     C6 1694  11.471   8.588   6.852 -0.0056 -0.1702 -0.1927
  189PNCE   AM1 1695  15.805   0.507   4.668  0.0912  0.4243  0.0491
  189PNCE   AM2 1696  15.459   0.512   4.591  0.1138  0.0860 -0.0976
  189PNCE   T1A 1697  15.954   0.385   5.093  0.1227  0.2326  0.1732
  189PNCE   C2A 1698  15.914   0.361   5.533 -0.1012 -0.2550 -0.0435
  189PNCE   C3A 1699  16.204   0.226   5.836 -0.0129  0.0187  0.1196
  189PNCE   C1B 1700  15.498   0.565   5.054  0.2143  0.2865 -0.1848
  189PNCE   C2B 1701  15.172   0.761   5.288  0.2307  0.1106 -0.1200
  189PNCE   C3B 1702  14.814   0.908   5.563 -0.2730  0.2035 -0.1887
  189PNCE   D4B 1703  14.889   1.075   6.040  0.1251  0.2245 -0.3841
  189PNCE   C5B 1704  14.929   1.473   6.192  0.0041  0.0763 -0.2601
  189PNCE   C6B 1705  14.903   1.903   6.055  0.2438  0.0657  0.1744
  190PNCE   AM1 1706   4.322  10.850   5.019  0.1425 -0.1956 -0.1852
  190PNCE   AM2 1707   4.427  10.654   5.290 -0.1284  0.1150 -0.0666
  190PNCE   T1A 1708   3.967  10.831   5.150  0.1928 -0.4518  0.0223
  190PNCE   C2A 1709   3.781  10.941   5.577  0.0614 -0.0576 -0.4322
  190PNCE   C3A 1710   3.795  10.949   6.070 -0.0704  0.0343 -0.5994
  190PNCE   C1B 1711   4.186  10.613   5.662 -0.0563  0.1141 -0.1523
  190PNCE   C2B 1712   4.190  10.744   6.101 -0.1022  0.1592 -0.0058
  190PNCE   C3B 1713   4.173  10.982   6.424 -0.1374 -0.2767 -0.1276
  190PNCE   D4B 1714   4.271  11.370   6.593 -0.0681 -0.0789  0.0682
  190PNCE   C5B 1715   4.259  11.403   7.029 -0.1693 -0.1668  0.0292
  190PNCE   C6B 1716   4.445  11.485   7.483  0.3917 -0.0471 -0.1955
  191CHOL   ROH 1717  14.959   0.122   8.002 -0.1358 -0.0215 -0.0674
  191CHOL    R1 1718  15.012   0.221   7.742 -0.2531  0.0878 -0.0516
  191CHOL    R2 1719  15.183   0.093   7.566  0.1069  0.4506  0.0152
  191CHOL    R3 1720  14.968   0.103   7.400  0.1351 -0.0349 -0.0638
  191CHOL    R4 1721  15.199   0.093   7.221  0.2357  0.5007  0.0211
  191CHOL    R5 1722  15.039   0.241   7.218 -0.1091  0.1416 -0.0291
  191CHOL    C1 1723  15.006   0.101   6.864  0.3373  0.0742 -0.0495
  191CHOL    C2 1724  15.236   0.102   6.518 -0.1082 -0.0147 -0.4270
  192CHOL   ROH 1725  11.972   1.159   5.215  0.1480  0.0302 -0.0081
  192CHOL    R1 1726  11.965   0.985   5.439  0.1593  0.0963  0.0447
  192CHOL    R2 1727  11.776   0.785   5.466  0.0885  0.1757  0.1700
  192CHOL    R3 1728  11.995   0.627   5.496  0.0387  0.1004  0.1342
  192CHOL    R4 1729  11.790   0.502   5.664  0.0581  0.2322  0.2526
  192CHOL    R5 1730  11.990   0.561   5.726  0.1040  0.1740  0.1555
  192CHOL    C1 1731  12.003   0.188   5.807 -0.0064  0.1945  0.2671
  192CHOL    C2 1732  11.772  -0.010   6.006 -0.2080  0.1709 -0.0868
  193XCA    COO 1733   5.158  10.542   9.282  0.0954 -0.0213  0.0453
  193XCA     C1 1734   5.207  10.567   8.840 -0.1510  0.3860  0.2860
  193XCA     C2 1735   5.212  10.925   8.518  0.0347  0.1363  0.1599
  193XCA     C3 1736   5.180  11.075   8.028  0.2418 -0.0033 -0.1575
  193XCA     C4 1737   5.390  11.306   7.728 -0.2064 -0.0580 -0.0243
  193XCA     C5 1738   5.356  11.440   7.320  0.2871 -0.1322 -0.0793
  193XCA     C6 1739   5.024  11.695   7.148 -0.1753 -0.2200  0.0846
  194CHOL   ROH 1740   7.853  10.714   5.506 -0.2508  0.0623  0.0946
  194CHOL    R1 1741   7.783  10.599   5.755 -0.1875 -0.0563  0.0584
  194CHOL    R2 1742   7.853  10.713   5.997 -0.0441 -0.2207  0.0971
  194CHOL    R3 1743   7.586  10.696   6.046 -0.0303 -0.1511  0.1978
  194CHOL    R4 1744   7.710  10.719   6.311  0.0523  0.1047  0.1387
  194CHOL    R5 1745   7.571  10.564   6.245  0.0192  0.0487  0.3365
  194CHOL    C1 1746   7.375  10.707   6.540  0.1213  0.3595  0.2575
  194CHOL    C2 1747   7.135  10.388   6.712 -0.1522  0.1300  0.0433
  195PNCE   AM1 1748   0.595   2.223   8.987 -0.0335  0.1005 -0.1173
  195PNCE   AM2 1749   0.702   1.917   9.031  0.0064  0.0181 -0.2879
  195PNCE   T1A 1750   0.257   1.919   8.773  0.1109 -0.0836 -0.3942
  195PNCE   C2A 1751  -0.049   1.802   8.369 -0.1099 -0.1892  0.2531
  195PNCE   C3A 1752  -0.009   1.693   7.959 -0.0084 -0.3624 -0.1884
  195PNCE   C1B 1753   0.742   2.088   8.526  0.2277  0.0411  0.2767
  195PNCE   C2B 1754   0.625   2.389   8.166 -0.2397  0.1585 -0.2225
  195PNCE   C3B 1755   0.687   2.656   7.848 -0.0251 -0.4036  0.0148
  195PNCE   D4B 1756   0.734   2.805   7.473  0.0078  0.1323  0.1914
  195PNCE   C5B 1757   0.821   3.096   7.176 -0.1237  0.0467 -0.5080
  195PNCE   C6B 1758   1.058   3.263   6.837 -0.2968  0.3821  0.2987
  196XCA    COO 1759  13.669   5.357   5.230  0.0371 -0.2459  0.1532
  196XCA     C1 1760  13.958   5.543   5.226 -0.0298  0.0862 -0.0408
  196XCA     C2 1761  14.190   5.708   5.595 -0.0516 -0.1251  0.3829
  196XCA     C3 1762  14.305   5.943   5.956 -0.1873 -0.0342  0.0099
  196XCA     C4 1763  14.266   5.933   6.414 -0.2098  0.0442  0.0567
  196XCA     C5 1764  13.930   5.879   6.659  0.0481 -0.1793 -0.1569
  196XCA     C6 1765  13.579   5.797   6.958 -0.0774 -0.0189  0.2151
  197CHOL   ROH 1766   7.776   8.349   5.374  0.0513 -0.3178  0.0226
  197CHOL    R1 1767   7.958   8.376   5.590 -0.0485 -0.5055  0.1340
  197CHOL    R2 1768   8.011   8.619   5.710  0.4981 -0.4590 -0.1620
  197CHOL    R3 1769   7.942   8.486   5.936 -0.0601  0.0219 -0.0262
  197CHOL    R4 1770   8.095   8.719   6.030  0.7548 -0.3933 -0.2481
  197CHOL    R5 1771   8.133   8.510   6.079 -0.0031 -0.5002 -0.0011
  197CHOL    C1 1772   8.079   8.652   6.429  0.3801  0.0965 -0.1708
  197CHOL    C2 1773   7.860   8.913   6.636  0.1663  0.1703 -0.2932
  198CHOL   ROH 1774  12.562  10.532   7.654  0.0764 -0.2360 -0.1122
  198CHOL    R1 1775  12.445  10.493   7.399  0.0277 -0.0587 -0.1177
  198CHOL    R2 1776  12.552  10.602   7.169  0.1412 -0.1278 -0.0960
  198CHOL    R3 1777  12.545  10.344   7.082 -0.1411 -0.1054 -0.1506
  198CHOL    R4 1778  12.534  10.506   6.837  0.2417 -0.0309 -0.1305
  198CHOL    R5 1779  12.394  10.348   6.896 -0.0123  0.1367 -0.2566
  198CHOL    C1 1780  12.517  10.208   6.563  0.0352  0.0467 -0.2017
  198CHOL    C2 1781  12.356  10.104   6.126 -0.0411  0.1228 -0.1264
  199PNCE   AM1 1782   4.360   9.613   9.523  0.0950 -0.1766  0.0448
  199PNCE   AM2 1783   4.029   9.597   9.489  0.4541  0.0582  0.3430
  199PNCE   T1A 1784   4.659   9.623   9.180  0.0839 -0.0711  0.2064
  199PNCE   C2A 1785   4.804   9.711   8.874 -0.1060 -0.0353 -0.0815
  199PNCE   C3A 1786   4.923   9.540   8.520 -0.1575  0.1878  0.3593
  199PNCE   C1B 1787   4.205   9.589   9.027 -0.0639 -0.1291 -0.3738
  199PNCE   C2B 1788   4.477   9.324   8.740 -0.1919 -0.3061 -0.2391
  199PNCE   C3B 1789   4.554   9.124   8.319  0.1170 -0.3230  0.3207
  199PNCE   D4B 1790   4.430   8.880   7.995 -0.0333 -0.1213 -0.0675
  199PNCE   C5B 1791   4.208   9.027   7.518 -0.0735  0.0684  0.4235
  199PNCE   C6B 1792   3.700   9.179   7.503 -0.1322 -0.0597  0.4340
  200PNCE   AM1 1793   0.894  13.565   7.756  0.2074  0.2183 -0.1743
  200PNCE   AM2 1794   1.037  13.706   8.079  0.1570 -0.0366  0.1429
  200PNCE   T1A 1795   0.953  13.886   7.523 -0.2077 -0.1029 -0.0635
  200PNCE   C2A 1796   1.058  14.373   7.327  0.1482  0.0073 -0.0939
  200PNCE   C3A 1797   1.230  14.574   6.941 -0.0300 -0.1132  0.0030
  200PNCE   C1B 1798   1.388  13.854   7.843  0.3092 -0.0525  0.2032
  200PNCE   C2B 1799   1.530  14.126   7.514 -0.1232  0.2177 -0.1415
  200PNCE   C3B 1800   1.594  14.330   7.097  0.1122  0.0396 -0.0316
  200PNCE   D4B 1801   1.705  14.312   6.701  0.4935  0.1563 -0.1376
  200PNCE   C5B 1802   2.066  14.179   6.459 -0.1733  0.0070 -0.1822
  200PNCE   C6B 1803   2.385  14.284   6.383 -0.0355  0.0727  0.1301
  201CHOL   ROH 1804   4.626   2.795   8.738  0.3123  0.0065 -0.0465
  201CHOL    R1 1805   4.765   2.756   8.495  0.1620 -0.0043 -0.1321
  201CHOL    R2 1806   4.653   2.625   8.279  0.0301 -0.0212 -0.0557
  201CHOL    R3 1807   4.721   2.853   8.147 -0.0589 -0.0269 -0.1118
  201CHOL    R4 1808   4.715   2.646   7.939  0.0921 -0.0958 -0.0488
  201CHOL    R5 1809   4.881   2.781   7.983  0.0133  0.0032 -0.0551
  201CHOL    C1 1810   4.816   2.872   7.618  0.0445 -0.1446 -0.0974
  201CHOL    C2 1811   4.960   2.947   7.321  0.1199  0.2209  0.5573
  202CHOL   ROH 1812   4.637   7.339   5.644 -0.0120  0.3161  0.0070
  202CHOL    R1 1813   4.693   7.301   5.919 -0.1171  0.1270  0.0050
  202CHOL    R2 1814   4.901   7.430   6.047  0.0166 -0.1772  0.1110
  202CHOL    R3 1815   4.705   7.509   6.217  0.0692 -0.0125  0.0957
  202CHOL    R4 1816   4.948   7.639   6.319  0.1138 -0.0121 -0.0307
  202CHOL    R5 1817   4.810   7.513   6.432  0.1027  0.1013  0.0744
  202CHOL    C1 1818   4.790   7.834   6.637  0.2199  0.2387 -0.1274
  202CHOL    C2 1819   4.814   7.989   6.949 -0.0510  0.2911 -0.0465
  203CHOL   ROH 1820  15.515   8.245   5.765  0.2333 -0.0455  0.1417
  203CHOL    R1 1821  15.343   8.376   5.947  0.0693 -0.0459 -0.0100
  203CHOL    R2 1822  15.437   8.528   6.158 -0.1173 -0.0923  0.1091
  203CHOL    R3 1823  15.278   8.719   6.049  0.0205 -0.0510 -0.0237
  203CHOL    R4 1824  15.290   8.786   6.335 -0.2449 -0.0884 -0.0012
  203CHOL    R5 1825  15.110   8.758   6.215 -0.1357 -0.0420 -0.1810
  203CHOL    C1 1826  15.055   9.116   6.336 -0.1898 -0.0471 -0.1899
  203CHOL    C2 1827  14.906   9.332   6.756  0.1400 -0.0693  0.1767
  204PNCE   AM1 1828  14.350   5.891   8.629 -0.3317 -0.0012 -0.0793
  204PNCE   AM2 1829  14.593   6.133   8.814  0.2753  0.1531  0.0188
  204PNCE   T1A 1830  14.353   6.138   8.290  0.1250  0.0920  0.1446
  204PNCE   C2A 1831  14.397   6.547   8.105  0.0377 -0.1782 -0.1333
  204PNCE   C3A 1832  14.720   6.712   7.932  0.1730 -0.3667  0.3988
  204PNCE   C1B 1833  14.794   6.254   8.547  0.1352 -0.0431  0.0731
  204PNCE   C2B 1834  14.855   6.123   8.190 -0.0112 -0.1267  0.1469
  204PNCE   C3B 1835  15.112   5.901   7.852 -0.1657 -0.2421 -0.2278
  204PNCE   D4B 1836  15.428   5.549   7.929 -0.3688 -0.1297  0.1697
  204PNCE   C5B 1837  15.434   5.552   8.373  0.0518  0.0691  0.0662
  204PNCE   C6B 1838  15.274   5.331   8.657  0.3651 -0.0700 -0.0143
  205CHOL   ROH 1839   2.138  13.794   4.941 -0.1613  0.0076  0.1081
  205CHOL    R1 1840   2.228  13.718   5.198 -0.1299  0.0059  0.0967
  205CHOL    R2 1841   2.447  13.835   5.320  0.0017 -0.1258 -0.0081
  205CHOL    R3 1842   2.271  13.879   5.522  0.1022  0.0592  0.0417
  205CHOL    R4 1843   2.515  13.787   5.655  0.0015 -0.3488 -0.0386
  205CHOL    R5 1844   2.315  13.703   5.679 -0.1206 -0.0674 -0.0316
  205CHOL    C1 1845   2.389  13.800   6.041  0.0957 -0.3048 -0.0097
  205CHOL    C2 1846   2.539  13.663   6.239  0.1675 -0.1370 -0.0918
  206XCA    COO 1847  14.045  13.098   3.907 -0.0896  0.3680  0.2216
  206XCA     C1 1848  13.953  12.922   4.391  0.2877 -0.1655 -0.0502
  206XCA     C2 1849  13.780  12.790   4.818 -0.1330  0.0161  0.2561
  206XCA     C3 1850  13.564  12.823   5.146  0.0582 -0.2171  0.0384
  206XCA     C4 1851  13.506  12.620   5.481 -0.0522  0.2086  0.0883
  206XCA     C5 1852  13.696  12.271   5.619 -0.0517  0.0659 -0.0292
  206XCA     C6 1853  13.602  12.129   6.025  0.0306  0.1809 -0.0926
  207CHOL   ROH 1854   0.447  10.238   5.096 -0.2153 -0.3456 -0.0305
  207CHOL    R1 1855   0.326  10.254   5.351 -0.0613 -0.2427  0.0384
  207CHOL    R2 1856   0.451  10.167   5.582  0.0870 -0.1303  0.0028
  207CHOL    R3 1857   0.396  10.419   5.668  0.1199 -0.0959 -0.0765
  207CHOL    R4 1858   0.542  10.294   5.890  0.0655 -0.0574 -0.0210
  207CHOL    R5 1859   0.347  10.392   5.901  0.0824 -0.0196 -0.0762
  207CHOL    C1 1860   0.542  10.604   6.151  0.0839  0.0175 -0.1093
  207CHOL    C2 1861   0.453  10.670   6.480 -0.1398  0.0905 -0.1694
  208CHOL   ROH 1862   6.236   2.410   8.225  0.2169 -0.1110 -0.0652
  208CHOL    R1 1863   6.133   2.201   8.065  0.2321 -0.0584 -0.1439
  208CHOL    R2 1864   5.898   2.224   7.922  0.1087 -0.1015  0.0513
  208CHOL    R3 1865   6.055   2.150   7.713 -0.0004  0.1540 -0.1257
  208CHOL    R4 1866   5.786   2.055   7.642  0.0274 -0.0836  0.0721
  208CHOL    R5 1867   5.969   1.936   7.647  0.1559  0.0960 -0.1464
  208CHOL    C1 1868   5.869   1.888   7.282 -0.1223  0.1667 -0.0818
  208CHOL    C2 1869   5.875   2.100   6.845  0.0613  0.0207 -0.1800
  209PNCE   AM1 1870   5.359   6.773   9.549 -0.0498 -0.0559  0.0299
  209PNCE   AM2 1871   4.962   6.560   9.632 -0.0675  0.2480 -0.1981
  209PNCE   T1A 1872   5.269   6.760   9.130  0.2679  0.0826  0.1324
  209PNCE   C2A 1873   5.058   6.929   8.723 -0.1235 -0.0708 -0.1096
  209PNCE   C3A 1874   4.714   6.883   8.403  0.0791 -0.4203  0.1955
  209PNCE   C1B 1875   4.822   6.852   9.328  0.2406 -0.1575 -0.0932
  209PNCE   C2B 1876   4.602   6.979   8.933  0.1328  0.1916  0.0870
  209PNCE   C3B 1877   4.268   7.000   8.575 -0.0874 -0.1436  0.0122
  209PNCE   D4B 1878   3.878   7.062   8.382 -0.3898 -0.1556 -0.0141
  209PNCE   C5B 1879   3.770   6.759   8.060  0.1555 -0.0829  0.2311
  209PNCE   C6B 1880   3.947   6.532   7.831  0.1925  0.1059  0.0973
  210CHOL   ROH 1881  11.857   3.151   7.960  0.0762 -0.1280 -0.1703
  210CHOL    R1 1882  11.709   3.040   7.746 -0.0318 -0.2773 -0.0205
  210CHOL    R2 1883  11.772   3.088   7.482 -0.3947 -0.1477 -0.0890
  210CHOL    R3 1884  11.776   2.817   7.467 -0.0657 -0.1437 -0.1359
  210CHOL    R4 1885  11.722   2.905   7.192 -0.4161 -0.1651 -0.0745
  210CHOL    R5 1886  11.605   2.763   7.308 -0.1379 -0.3344  0.0055
  210CHOL    C1 1887  11.698   2.544   7.010 -0.1199 -0.1716 -0.1102
  210CHOL    C2 1888  11.648   2.189   6.839  0.0892 -0.1820 -0.3230
  211PNCE   AM1 1889  13.916  10.678   8.821  0.1997 -0.0688 -0.1147
  211PNCE   AM2 1890  14.231  11.029   8.792 -0.0266  0.3368  0.0577
  211PNCE   T1A 1891  13.617  10.649   8.426 -0.0688  0.1043 -0.0335
  211PNCE   C2A 1892  13.572  10.833   8.038  0.2777 -0.1818  0.0455
  211PNCE   C3A 1893  13.433  11.157   8.359 -0.0420 -0.1819  0.1884
  211PNCE   C1B 1894  13.992  11.152   8.488 -0.3774 -0.2012  0.1385
  211PNCE   C2B 1895  13.924  11.189   8.024 -0.0998  0.0404 -0.1990
  211PNCE   C3B 1896  13.936  11.362   7.525  0.1344  0.2886 -0.4480
  211PNCE   D4B 1897  14.165  11.511   7.161  0.0653 -0.1235  0.3001
  211PNCE   C5B 1898  13.976  11.878   6.868 -0.1790 -0.1042 -0.0632
  211PNCE   C6B 1899  14.294  12.065   6.649  0.0151  0.2906 -0.0972
  212CHOL   ROH 1900   7.513   3.063   7.933 -0.0289 -0.0838 -0.0579
  212CHOL    R1 1901   7.462   3.200   7.691  0.0871  0.0426 -0.0130
  212CHOL    R2 1902   7.662   3.318   7.542  0.1949 -0.0902  0.0154
  212CHOL    R3 1903   7.558   3.165   7.342  0.0445  0.0621 -0.0248
  212CHOL    R4 1904   7.740   3.351   7.206  0.2497 -0.1154  0.0257
  212CHOL    R5 1905   7.530   3.317   7.159  0.2210  0.1227  0.0026
  212CHOL    C1 1906   7.688   3.227   6.824  0.1404  0.0128 -0.0061
  212CHOL    C2 1907   7.717   3.511   6.502 -0.2026  0.1581 -0.0746
  213PNCE   AM1 1908   7.364  10.520   8.878  0.1186 -0.1198  0.0068
  213PNCE   AM2 1909   7.672  10.608   8.728  0.0326 -0.3375 -0.2357
  213PNCE   T1A 1910   7.043  10.642   8.483  0.0895  0.1745 -0.2990
  213PNCE   C2A 1911   6.805  10.565   8.186 -0.1465  0.1224 -0.2344
  213PNCE   C3A 1912   6.711  10.314   7.781  0.0277 -0.0763 -0.0434
  213PNCE   C1B 1913   7.501  10.587   8.269  0.2705  0.0591  0.0676
  213PNCE   C2B 1914   7.228  10.374   7.908  0.2799  0.2813  0.2715
  213PNCE   C3B 1915   7.053   9.981   7.855  0.0770 -0.4196 -0.0345
  213PNCE   D4B 1916   7.036   9.617   8.074 -0.0108  0.4132 -0.0426
  213PNCE   C5B 1917   6.667   9.456   8.135  0.0489 -0.1403 -0.0249
  213PNCE   C6B 1918   6.226   9.556   8.112 -0.0290 -0.1518  0.1462
  214CHOL   ROH 1919  13.683  10.845   6.722 -0.2938 -0.2703 -0.2514
  214CHOL    R1 1920  13.954  10.772   6.689 -0.2359 -0.0881 -0.1988
  214CHOL    R2 1921  14.077  10.581   6.848 -0.1189  0.0359 -0.1340
  214CHOL    R3 1922  14.137  10.468   6.608 -0.0126  0.0184 -0.0988
  214CHOL    R4 1923  14.262  10.293   6.806 -0.0762  0.0496 -0.0374
  214CHOL    R5 1924  14.360  10.385   6.635 -0.0179  0.0408 -0.0051
  214CHOL    C1 1925  14.427  10.018   6.557  0.0482  0.0412  0.0518
  214CHOL    C2 1926  14.573   9.932   6.217  0.1895  0.0968  0.3710
  215CHOL   ROH 1927  15.577   5.913   7.574 -0.0152  0.0207 -0.0564
  215CHOL    R1 1928  15.375   5.791   7.418 -0.0048  0.0179 -0.0679
  215CHOL    R2 1929  15.282   5.536   7.468  0.0621 -0.0196 -0.1313
  215CHOL    R3 1930  15.040   5.660   7.474  0.0332 -0.0791 -0.0658
  215CHOL    R4 1931  14.981   5.387   7.388  0.0770 -0.0952 -0.0468
  215CHOL    R5 1932  14.922   5.571   7.287  0.0035 -0.1102 -0.0324
  215CHOL    C1 1933  14.578   5.416   7.348  0.0584 -0.1950  0.0639
  215CHOL    C2 1934  14.188   5.272   7.241  0.0262  0.1059 -0.3853
  216PNCE   AM1 1935   7.728  11.101   8.315  0.1152  0.1718 -0.2141
  216PNCE   AM2 1936   7.486  11.392   8.329  0.0237  0.2820 -0.0883
  216PNCE   T1A 1937   7.791  11.249   7.956  0.0268  0.2349 -0.1901
  216PNCE   C2A 1938   7.536  11.236   7.572 -0.2920  0.2891 -0.0183
  216PNCE   C3A 1939   7.064  11.238   7.311  0.0742  0.1253 -0.2260
  216PNCE   C1B 1940   7.272  11.557   8.045 -0.0484 -0.0415  0.2598
  216PNCE   C2B 1941   7.227  11.663   7.585  0.1109  0.0429  0.2102
  216PNCE   C3B 1942   7.211  11.702   7.080  0.0548  0.2448  0.0544
  216PNCE   D4B 1943   7.163  11.640   6.709 -0.1079 -0.2901 -0.1812
  216PNCE   C5B 1944   7.425  11.782   6.338 -0.0010 -0.1243  0.0082
  216PNCE   C6B 1945   7.379  12.013   5.986  0.0267 -0.0036  0.0861
  217PNCE   AM1 1946   8.184   0.425   8.021 -0.0140  0.0940  0.0576
  217PNCE   AM2 1947   8.464   0.405   7.895  0.0436  0.1226  0.1547
  217PNCE   T1A 1948   8.119   0.802   7.749 -0.3552  0.5894 -0.1078
  217PNCE   C2A 1949   8.070   1.045   7.380  0.2166  0.1643  0.0820
  217PNCE   C3A 1950   7.837   1.453   7.480  0.0357  0.2678 -0.3398
  217PNCE   C1B 1951   8.613   0.410   7.458 -0.0920  0.1869  0.1612
  217PNCE   C2B 1952   8.947   0.355   7.153  0.2359  0.1768  0.3080
  217PNCE   C3B 1953   9.211   0.640   6.796  0.0624  0.0602  0.0327
  217PNCE   D4B 1954   9.493   0.409   6.502  0.1359 -0.1829 -0.2901
  217PNCE   C5B 1955   9.757   0.021   6.632  0.2970  0.2911  0.0132
  217PNCE   C6B 1956   9.981  -0.267   6.447 -0.0239 -0.2445 -0.0503
  218PNCE   AM1 1957  10.687   2.633   8.335  0.0861 -0.2669  0.2021
  218PNCE   AM2 1958  10.380   2.736   8.490 -0.0524 -0.1285  0.1380
  218PNCE   T1A 1959  11.025   2.476   8.002  0.0718  0.1857  0.3252
  218PNCE   C2A 1960  11.301   2.226   7.785  0.0200  0.1748  0.2135
  218PNCE   C3A 1961  11.411   1.875   7.664  0.0864  0.3137 -0.2111
  218PNCE   C1B 1962  10.307   2.393   8.179  0.0881 -0.0273 -0.0623
  218PNCE   C2B 1963  10.118   2.201   7.777  0.0265  0.1483  0.1220
  218PNCE   C3B 1964   9.729   1.971   7.658  0.0257  0.0223  0.0059
  218PNCE   D4B 1965   9.650   1.693   7.380 -0.0646  0.2128  0.0991
  218PNCE   C5B 1966   9.816   1.738   6.954 -0.0570 -0.0412 -0.1023
  218PNCE   C6B 1967   9.747   1.727   6.504 -0.2082  0.0814 -0.1439
  219CHOL   ROH 1968  12.275  14.069   4.596  0.1297 -0.0909  0.1317
  219CHOL    R1 1969  12.087  14.091   4.807 -0.0273 -0.3580  0.0203
  219CHOL    R2 1970  12.028  13.880   4.975  0.4545 -0.3432  0.2004
  219CHOL    R3 1971  12.092  14.058   5.169 -0.1069  0.0371  0.0649
  219CHOL    R4 1972  11.969  13.834   5.312  0.7203 -0.3689  0.2483
  219CHOL    R5 1973  11.911  14.044   5.325 -0.0384 -0.5256  0.1286
  219CHOL    C1 1974  11.994  13.975   5.691  0.3481 -0.0268  0.1489
  219CHOL    C2 1975  11.866  14.024   6.087 -0.4832 -0.0036 -0.1098
  220PNCE   AM1 1976  11.010  15.224   8.163 -0.3392  0.1985 -0.2796
  220PNCE   AM2 1977  10.775  15.051   8.143 -0.1420 -0.0406 -0.0827
  220PNCE   T1A 1978  10.997  15.266   7.687 -0.3188  0.0194 -0.0571
  220PNCE   C2A 1979  10.985  15.342   7.242 -0.3571 -0.3616 -0.0137
  220PNCE   C3A 1980  11.265  15.261   6.958  0.0765 -0.2638  0.0321
  220PNCE   C1B 1981  10.697  14.806   7.799  0.1300 -0.0384 -0.1980
  220PNCE   C2B 1982  10.598  14.932   7.369 -0.1364  0.0479 -0.3376
  220PNCE   C3B 1983  10.415  14.767   7.086 -0.1848 -0.1347  0.0784
  220PNCE   D4B 1984  10.460  14.852   6.698  0.1078  0.2240 -0.0726
  220PNCE   C5B 1985  10.120  14.682   6.372  0.1962 -0.2695  0.1554
  220PNCE   C6B 1986   9.892  14.408   6.162  0.3582  0.1512  0.2515
  221CHOL   ROH 1987   3.271  11.692   8.643 -0.2108  0.1306 -0.0382
  221CHOL    R1 1988   3.218  11.532   8.415 -0.1804  0.0475  0.0133
  221CHOL    R2 1989   3.407  11.484   8.220 -0.2010  0.0981 -0.0161
  221CHOL    R3 1990   3.349  11.224   8.272 -0.0548  0.0786  0.0580
  221CHOL    R4 1991   3.391  11.234   7.982 -0.3415  0.0808  0.0105
  221CHOL    R5 1992   3.216  11.154   8.085 -0.2147  0.0212  0.1885
  221CHOL    C1 1993   3.326  10.844   7.893 -0.2861  0.0525  0.0955
  221CHOL    C2 1994   3.486  10.739   7.561 -0.2782  0.1109  0.1205
  222CHOL   ROH 1995   9.240   1.957   4.591 -0.0547 -0.1508  0.0259
  222CHOL    R1 1996   9.070   1.971   4.817 -0.0728 -0.0785  0.0074
  222CHOL    R2 1997   8.880   1.779   4.873 -0.0469 -0.0807  0.0748
  222CHOL    R3 1998   9.006   1.769   5.113 -0.0662  0.0396  0.0911
  222CHOL    R4 1999   8.724   1.717   5.175 -0.0423 -0.1548  0.0628
  222CHOL    R5 2000   8.851   1.869   5.266 -0.1592 -0.0500  0.0599
  222CHOL    C1 2001   8.752   1.672   5.577 -0.0576 -0.0850  0.0710
  222CHOL    C2 2002   8.460   1.738   5.859 -0.0612 -0.0162  0.0540
  223PNCE   AM1 2003  15.376   5.752   8.842  0.0346 -0.1979  0.0127
  223PNCE   AM2 2004  15.013   5.799   8.841  0.3674  0.2235  0.0319
  223PNCE   T1A 2005  15.423   6.059   8.558 -0.0529  0.0191  0.1037
  223PNCE   C2A 2006  15.518   6.067   8.127 -0.0509  0.0493  0.2670
  223PNCE   C3A 2007  15.567   6.356   7.735 -0.3754  0.0387  0.1559
  223PNCE   C1B 2008  14.988   5.750   8.473 -0.1064 -0.4563  0.1927
  223PNCE   C2B 2009  14.775   5.607   8.035  0.0232 -0.0043 -0.2235
  223PNCE   C3B 2010  14.639   5.788   7.639  0.0529 -0.1431  0.0507
  223PNCE   D4B 2011  14.616   5.954   7.257  0.1731 -0.0474 -0.1005
  223PNCE   C5B 2012  14.346   5.738   6.932 -0.3043  0.0182  0.0614
  223PNCE   C6B 2013  14.526   5.563   6.622  0.1956 -0.1334  0.0408
  224XCA    COO 2014   1.322   5.780   4.965 -0.1237 -0.2375 -0.1726
  224XCA     C1 2015   1.170   5.661   5.349 -0.0141 -0.2771  0.0132
  224XCA     C2 2016   1.087   5.625   5.754 -0.0289  0.0747  0.1664
  224XCA     C3 2017   1.214   5.423   6.089 -0.1780 -0.1755 -0.1236
  224XCA     C4 2018   1.114   4.985   6.257  0.1019  0.0747  0.0912
  224XCA     C5 2019   1.018   4.753   6.661  0.1895 -0.0301  0.0197
  224XCA     C6 2020   1.001   4.845   7.087 -0.2046  0.1241 -0.2674
  225CHOL   ROH 2021   6.744  15.283   5.114  0.1500 -0.0563  0.0721
  225CHOL    R1 2022   6.981  15.251   5.265  0.1650  0.0169  0.0587
  225CHOL    R2 2023   7.132  15.465   5.353  0.0100  0.0586  0.1769
  225CHOL    R3 2024   7.099  15.347   5.595  0.1018 -0.0950  0.1199
  225CHOL    R4 2025   7.316  15.540   5.636  0.0688 -0.0253  0.1645
  225CHOL    R5 2026   7.321  15.327   5.683  0.1484 -0.0695  0.0448
  225CHOL    C1 2027   7.391  15.472   6.029  0.1892 -0.2184  0.1038
  225CHOL    C2 2028   7.673  15.554   6.036  0.1161 -0.3242  0.1654
  226PNCE   AM1 2029  13.699   8.055   8.558  0.2582 -0.3976  0.2538
  226PNCE   AM2 2030  13.398   8.030   8.708 -0.0874  0.3587  0.0270
  226PNCE   T1A 2031  13.683   8.014   8.083  0.0297  0.0838 -0.2149
  226PNCE   C2A 2032  13.850   7.942   7.719  0.4239  0.1907 -0.0014
  226PNCE   C3A 2033  13.960   8.234   7.433 -0.3331 -0.0727  0.1429
  226PNCE   C1B 2034  13.235   7.770   8.347 -0.1815  0.0315  0.0075
  226PNCE   C2B 2035  13.245   7.698   7.971  0.0799 -0.2212  0.1727
  226PNCE   C3B 2036  13.164   7.765   7.565  0.0354  0.0830 -0.0221
  226PNCE   D4B 2037  13.105   7.606   7.175  0.1866 -0.1308  0.1728
  226PNCE   C5B 2038  13.369   7.433   6.864 -0.0974  0.0643  0.0732
  226PNCE   C6B 2039  13.392   7.064   6.556 -0.4333 -0.1845  0.1304
  227XCA    COO 2040   7.961   3.236   8.348 -0.0790  0.0246 -0.0023
  227XCA     C1 2041   8.032   3.212   7.961  0.0193  0.0534  0.1815
  227XCA     C2 2042   7.981   2.979   7.546 -0.0075 -0.0001  0.1502
  227XCA     C3 2043   8.057   2.994   7.109 -0.1949  0.2639 -0.0515
  227XCA     C4 2044   8.134   3.027   6.675  0.4625  0.1912  0.0872
  227XCA     C5 2045   7.886   3.106   6.377 -0.0597 -0.0730  0.1678
  227XCA     C6 2046   7.684   2.810   6.080 -0.2264 -0.3736 -0.0677
  228PNCE   AM1 2047   1.083   9.352   9.246  0.1050 -0.0794  0.1185
  228PNCE   AM2 2048   0.998   9.209   8.921 -0.1120 -0.1004  0.1318
  228PNCE   T1A 2049   1.193   9.641   8.883  0.1267  0.1077 -0.3932
  228PNCE   C2A 2050   1.434   9.623   8.528  0.0655 -0.0921 -0.0339
  228PNCE   C3A 2051   1.595   9.808   8.111  0.3559 -0.1739  0.1097
  228PNCE   C1B 2052   1.004   9.367   8.521  0.0383 -0.1123  0.2074
  228PNCE   C2B 2053   0.984   9.473   8.177 -0.2200  0.1292 -0.2833
  228PNCE   C3B 2054   1.100   9.284   7.778 -0.0149  0.0665 -0.0587
  228PNCE   D4B 2055   1.337   8.932   7.504  0.2580 -0.1025 -0.0464
  228PNCE   C5B 2056   1.089   8.761   7.241  0.1485  0.2031  0.3361
  228PNCE   C6B 2057   1.055   8.386   7.169  0.1241 -0.2175  0.0625
  229CHOL   ROH 2058   4.292   3.035   5.294 -0.0495 -0.0055  0.1083
  229CHOL    R1 2059   4.163   3.193   5.491  0.0644  0.0106  0.1689
  229CHOL    R2 2060   3.932   3.112   5.620  0.0031  0.1344  0.1198
  229CHOL    R3 2061   4.079   3.160   5.843  0.0225 -0.0682  0.1549
  229CHOL    R4 2062   3.804   3.223   5.921  0.0239 -0.0124  0.1847
  229CHOL    R5 2063   3.977   3.353   5.941  0.0836 -0.0845  0.2731
  229CHOL    C1 2064   3.866   3.333   6.306  0.0543 -0.2880  0.2553
  229CHOL    C2 2065   3.683   3.509   6.536 -0.1459  0.0888  0.0249
  230XCA    COO 2066   0.586   2.043   4.118 -0.0712  0.2047  0.0643
  230XCA     C1 2067   0.577   2.011   4.612  0.0094  0.1661  0.1857
  230XCA     C2 2068   0.567   1.997   4.996 -0.0111  0.1430 -0.2724
  230XCA     C3 2069   0.514   1.798   5.382 -0.0428  0.2042  0.0619
  230XCA     C4 2070   0.248   1.520   5.436 -0.1251  0.1602  0.0813
  230XCA     C5 2071  -0.138   1.484   5.695 -0.3562 -0.3158  0.1939
  230XCA     C6 2072  -0.105   1.376   6.193 -0.0160 -0.1103  0.1224
  231CHOL   ROH 2073   9.005  15.453   8.370 -0.0984  0.0327 -0.1572
  231CHOL    R1 2074   8.994  15.466   8.087 -0.1493 -0.0500 -0.1607
  231CHOL    R2 2075   9.167  15.622   7.938 -0.3506  0.1261 -0.2255
  231CHOL    R3 2076   9.218  15.388   7.811 -0.0852  0.1490 -0.1645
  231CHOL    R4 2077   9.261  15.592   7.607 -0.3945  0.1360 -0.2376
  231CHOL    R5 2078   9.131  15.419   7.590 -0.1781 -0.0325 -0.1513
  231CHOL    C1 2079   9.363  15.355   7.295 -0.1710  0.1632 -0.1872
  231CHOL    C2 2080   9.198  15.301   6.966 -0.1173 -0.1686  0.3387
  232PNCE   AM1 2081   8.567   1.946   8.397 -0.0940 -0.0419  0.2192
  232PNCE   AM2 2082   8.576   2.251   8.248 -0.1279 -0.4258 -0.2711
  232PNCE   T1A 2083   8.728   1.865   7.898  0.2507 -0.2396  0.6324
  232PNCE   C2A 2084   8.741   1.741   7.461  0.2918  0.2598 -0.1490
  232PNCE   C3A 2085   8.756   1.762   6.924  0.2621 -0.2237  0.4616
  232PNCE   C1B 2086   8.466   2.482   7.939 -0.0092 -0.2704 -0.1290
  232PNCE   C2B 2087   8.452   2.674   7.520 -0.0650  0.2127  0.0570
  232PNCE   C3B 2088   8.461   2.701   7.107  0.0140  0.5072 -0.0357
  232PNCE   D4B 2089   8.465   2.690   6.623  0.0168  0.1025  0.2033
  232PNCE   C5B 2090   8.138   2.672   6.281  0.3314  0.2803  0.2216
  232PNCE   C6B 2091   8.116   2.602   5.790  0.0543 -0.0009 -0.1100
  233PNCE   AM1 2092   8.267   5.146   8.929  0.2957  0.0564  0.0118
  233PNCE   AM2 2093   8.523   5.354   8.823 -0.1882  0.1720  0.0822
  233PNCE   T1A 2094   8.032   5.160   8.555 -0.1493  0.2041  0.2562
  233PNCE   C2A 2095   8.079   5.138   8.115 -0.1092 -0.1197 -0.2510
  233PNCE   C3A 2096   8.474   5.196   7.864  0.1455 -0.2649 -0.1766
  233PNCE   C1B 2097   8.578   5.362   8.330 -0.0203 -0.2507 -0.0467
  233PNCE   C2B 2098   8.904   5.508   7.981  0.1909 -0.1581  0.1855
  233PNCE   C3B 2099   8.855   5.467   7.569  0.2910  0.0812 -0.1768
  233PNCE   D4B 2100   8.889   5.344   7.103 -0.1069 -0.1404 -0.0823
  233PNCE   C5B 2101   8.564   5.199   6.826 -0.0722 -0.3575 -0.0021
  233PNCE   C6B 2102   8.303   4.902   6.459  0.1786 -0.0975  0.4081
  234CHOL   ROH 2103   6.335   6.490   6.612  0.0385  0.1590  0.1614
  234CHOL    R1 2104   6.498   6.717   6.562  0.1774  0.0644  0.1837
  234CHOL    R2 2105   6.770   6.717   6.608  0.2470 -0.2416 -0.1939
  234CHOL    R3 2106   6.781   6.797   6.348 -0.0434  0.0335 -0.1300
  234CHOL    R4 2107   6.982   6.961   6.485  0.2296 -0.2253 -0.1932
  234CHOL    R5 2108   6.819   7.033   6.360  0.1012  0.0063  0.0870
  234CHOL    C1 2109   7.116   7.177   6.170 -0.0530  0.0424 -0.1328
  234CHOL    C2 2110   7.175   7.366   5.979 -0.2031 -0.1231 -0.2351
  235PNCE   AM1 2111  11.243   5.957   8.617 -0.4531 -0.3127 -0.0302
  235PNCE   AM2 2112  11.137   6.261   8.509 -0.1601  0.2626 -0.1615
  235PNCE   T1A 2113  11.538   5.686   8.873  0.0762  0.0235 -0.0965
  235PNCE   C2A 2114  11.772   5.382   8.769 -0.1043 -0.0513  0.3046
  235PNCE   C3A 2115  12.195   5.363   8.447  0.0585 -0.0011 -0.0470
  235PNCE   C1B 2116  10.961   5.973   8.175 -0.1920  0.2013  0.0531
  235PNCE   C2B 2117  10.660   6.090   7.803  0.0717  0.2919 -0.1591
  235PNCE   C3B 2118  10.650   6.071   7.370 -0.2474 -0.1150  0.0721
  235PNCE   D4B 2119  10.578   5.822   6.997  0.1071 -0.0648 -0.0378
  235PNCE   C5B 2120  10.359   5.863   6.591 -0.0759 -0.0250 -0.1481
  235PNCE   C6B 2121  10.373   5.761   6.119  0.0518 -0.2869  0.2299
  236XCA    COO 2122   1.324  12.394   4.305 -0.3530  0.0784 -0.0431
  236XCA     C1 2123   1.315  12.583   4.828  0.0157  0.1854 -0.0353
  236XCA     C2 2124   1.250  12.910   5.187 -0.0626 -0.1386 -0.1076
  236XCA     C3 2125   1.323  12.977   5.538  0.2161  0.0941 -0.3662
  236XCA     C4 2126   1.421  13.044   5.945 -0.1335 -0.2256 -0.0706
  236XCA     C5 2127   1.586  13.320   6.186 -0.1762  0.1490 -0.0223
  236XCA     C6 2128   1.391  13.756   6.235 -0.0263 -0.1553  0.1735
  237CHOL   ROH 2129   1.304  13.380   7.741 -0.0742 -0.0347  0.0084
  237CHOL    R1 2130   1.363  13.434   7.470  0.0554 -0.1046  0.0226
  237CHOL    R2 2131   1.359  13.689   7.364 -0.0992 -0.1549 -0.0903
  237CHOL    R3 2132   1.612  13.626   7.286  0.0099  0.0301  0.0988
  237CHOL    R4 2133   1.528  13.839   7.102 -0.2443 -0.4260 -0.3451
  237CHOL    R5 2134   1.606  13.642   7.047  0.0372 -0.4416  0.0539
  237CHOL    C1 2135   1.863  13.866   6.876 -0.2264 -0.4101 -0.3159
  237CHOL    C2 2136   1.704  13.874   6.592 -0.1501  0.3975  0.0208
  238CHOL   ROH 2137  12.143   5.295   5.521  0.0210  0.0270 -0.0778
  238CHOL    R1 2138  11.931   5.294   5.709  0.0741 -0.0084 -0.0180
  238CHOL    R2 2139  11.830   5.061   5.818  0.0838 -0.0312 -0.0567
  238CHOL    R3 2140  11.884   5.185   6.053  0.1623 -0.1040 -0.0357
  238CHOL    R4 2141  11.695   4.970   6.123 -0.1118  0.1118 -0.0989
  238CHOL    R5 2142  11.675   5.183   6.170  0.1234  0.1364 -0.0961
  238CHOL    C1 2143  11.667   5.034   6.522 -0.1521  0.1267 -0.1039
  238CHOL    C2 2144  11.547   4.588   6.532  0.0417 -0.1248  0.3037
  239CHOL   ROH 2145   0.424   8.392   7.764  0.2360  0.0997 -0.1185
  239CHOL    R1 2146   0.268   8.622   7.714  0.1359  0.0342 -0.1101
  239CHOL    R2 2147   0.372   8.878   7.724  0.0227  0.0783 -0.0923
  239CHOL    R3 2148   0.269   8.895   7.473  0.0221  0.0503 -0.0943
  239CHOL    R4 2149   0.307   9.173   7.557 -0.0824  0.0641 -0.0771
  239CHOL    R5 2150   0.123   9.084   7.481 -0.0497 -0.0029 -0.0863
  239CHOL    C1 2151   0.172   9.362   7.224 -0.1442  0.0294 -0.0701
  239CHOL    C2 2152   0.152   9.748   7.227 -0.0130  0.2218 -0.0026
  240XCA    COO 2153   8.531  10.686   5.264  0.0118 -0.0667  0.3269
  240XCA     C1 2154   8.806  10.536   5.427 -0.1673  0.1641  0.0806
  240XCA     C2 2155   8.970  10.150   5.413  0.0555 -0.3216 -0.2003
  240XCA     C3 2156   9.363   9.909   5.431  0.0320  0.1662 -0.1644
  240XCA     C4 2157   9.763   9.761   5.606 -0.1232 -0.0930  0.2536
  240XCA     C5 2158  10.141   9.431   5.509  0.0813 -0.0445  0.0066
  240XCA     C6 2159  10.538   9.470   5.658  0.2529 -0.1108  0.1633
  241PNCE   AM1 2160   6.422   1.380   8.047  0.0648 -0.1116  0.0602
  241PNCE   AM2 2161   6.796   1.258   8.192 -0.3121  0.2367  0.1195
  241PNCE   T1A 2162   6.373   1.723   7.690  0.1506 -0.1438 -0.0798
  241PNCE   C2A 2163   6.358   1.954   7.368 -0.4536 -0.1799 -0.0357
  241PNCE   C3A 2164   6.162   2.227   7.211  0.2977  0.1441  0.1043
  241PNCE   C1B 2165   6.835   1.583   7.811 -0.0606  0.0034  0.0253
  241PNCE   C2B 2166   6.918   1.705   7.397 -0.1004  0.0389 -0.0528
  241PNCE   C3B 2167   7.008   1.803   6.993  0.2539  0.1442  0.0351
  241PNCE   D4B 2168   7.372   1.705   6.692  0.1893  0.0316 -0.0465
  241PNCE   C5B 2169   7.724   1.319   6.704  0.1107 -0.0104 -0.0310
  241PNCE   C6B 2170   8.060   0.954   6.874  0.0351  0.1524  0.0850
  242CHOL   ROH 2171  13.911   9.190   5.127  0.1137 -0.0823  0.0215
  242CHOL    R1 2172  13.945   9.324   5.374 -0.1040  0.0661 -0.0268
  242CHOL    R2 2173  13.733   9.428   5.518 -0.2924 -0.3207 -0.0167
  242CHOL    R3 2174  13.836   9.276   5.718  0.0657 -0.0560  0.0111
  242CHOL    R4 2175  13.626   9.436   5.846 -0.1157 -0.3161  0.0425
  242CHOL    R5 2176  13.835   9.420   5.909 -0.0500  0.0459 -0.0657
  242CHOL    C1 2177  13.661   9.298   6.226  0.3232 -0.0648  0.1032
  242CHOL    C2 2178  13.635   9.012   6.476  0.0555 -0.0195 -0.1917
  243XCA    COO 2179   1.569   5.566   9.017 -0.0362 -0.1689 -0.2506
  243XCA     C1 2180   1.383   5.486   8.621 -0.1210 -0.0423  0.1792
  243XCA     C2 2181   1.317   5.528   8.197  0.2886  0.2910 -0.1155
  243XCA     C3 2182   1.653   5.541   7.982  0.1440  0.3535 -0.1739
  243XCA     C4 2183   1.980   5.705   7.934  0.1462  0.3098 -0.1840
  243XCA     C5 2184   2.305   5.862   7.686 -0.0311  0.1031  0.2144
  243XCA     C6 2185   2.486   6.259   7.872  0.0392 -0.1033  0.0588
  244PNCE   AM1 2186  12.553   0.936   8.658  0.0158 -0.2069 -0.0640
  244PNCE   AM2 2187  12.387   1.185   8.536 -0.2470 -0.1848 -0.1611
  244PNCE   T1A 2188  12.812   1.077   8.272 -0.0145  0.1371  0.0007
  244PNCE   C2A 2189  13.175   0.971   8.072  0.0922 -0.0115 -0.2728
  244PNCE   C3A 2190  13.227   0.850   7.704  0.2299 -0.1198  0.0570
  244PNCE   C1B 2191  12.238   1.201   8.162  0.0419 -0.0859 -0.1870
  244PNCE   C2B 2192  12.324   1.234   7.696  0.0673  0.1401  0.0737
  244PNCE   C3B 2193  12.543   1.181   7.212  0.1731  0.1698  0.3687
  244PNCE   D4B 2194  12.784   1.145   6.890 -0.2301 -0.3631 -0.3637
  244PNCE   C5B 2195  13.279   1.147   6.866  0.0027  0.1329 -0.1202
  244PNCE   C6B 2196  13.511   1.115   6.472 -0.0821  0.0599  0.0309
  245PNCE   AM1 2197   5.304  12.805   8.474  0.0146 -0.0390 -0.0102
  245PNCE   AM2 2198   5.684  12.721   8.586  0.1374 -0.1923 -0.1170
  245PNCE   T1A 2199   4.879  12.845   8.325  0.1097 -0.0461  0.2575
  245PNCE   C2A 2200   4.583  12.943   8.096 -0.1153 -0.0889  0.0544
  245PNCE   C3A 2201   4.408  13.208   7.815  0.0671  0.0729  0.0095
  245PNCE   C1B 2202   5.637  12.768   8.054  0.1428 -0.0033  0.0241
  245PNCE   C2B 2203   5.589  12.873   7.610  0.0640 -0.3690 -0.2656
  245PNCE   C3B 2204   5.572  12.797   7.243 -0.0603  0.0944  0.2254
  245PNCE   D4B 2205   5.276  12.568   6.976  0.0897  0.0032 -0.2922
  245PNCE   C5B 2206   5.211  12.201   7.225  0.3435  0.0372  0.0185
  245PNCE   C6B 2207   5.501  11.911   7.297 -0.0447  0.1151  0.2723
  246CHOL   ROH 2208  12.636   7.439   5.247  0.1219 -0.0365 -0.0184
  246CHOL    R1 2209  12.596   7.549   5.505  0.1754  0.0687 -0.0538
  246CHOL    R2 2210  12.511   7.397   5.719  0.0196  0.1951 -0.0218
  246CHOL    R3 2211  12.733   7.499   5.838  0.0893  0.0459 -0.0220
  246CHOL    R4 2212  12.557   7.425   6.061 -0.0642  0.3951 -0.0257
  246CHOL    R5 2213  12.649   7.620   6.028  0.1543  0.2740 -0.1371
  246CHOL    C1 2214  12.792   7.537   6.372 -0.0476  0.3715 -0.0281
  246CHOL    C2 2215  12.958   7.286   6.626 -0.1053 -0.1061  0.0657
  247XCA    COO 2216   9.722  10.012   5.134 -0.1222  0.0232 -0.1313
  247XCA     C1 2217  10.130   9.802   5.244 -0.0229  0.0119  0.0333
  247XCA     C2 2218  10.497   9.824   5.150 -0.0629  0.0745  0.0235
  247XCA     C3 2219  10.857   9.694   5.343  0.0543 -0.2473  0.0758
  247XCA     C4 2220  11.229   9.992   5.487 -0.2538 -0.3302 -0.1627
  247XCA     C5 2221  11.454  10.256   5.883 -0.1382  0.0697  0.3054
  247XCA     C6 2222  11.489  10.751   5.770 -0.3388  0.1526 -0.0926
  248CHOL   ROH 2223   0.749   5.728   6.857  0.0862  0.0301 -0.3751
  248CHOL    R1 2224   0.640   5.877   7.072  0.2298  0.2020 -0.4204
  248CHOL    R2 2225   0.570   6.143   7.048 -0.0929  0.0958 -0.6913
  248CHOL    R3 2226   0.330   6.055   7.139  0.1245 -0.0478 -0.2260
  248CHOL    R4 2227   0.308   6.348   7.140 -0.2640 -0.0554 -0.8299
  248CHOL    R5 2228   0.269   6.214   7.308  0.1120  0.2375 -0.4877
  248CHOL    C1 2229  -0.071   6.385   7.280 -0.1596 -0.2783 -0.4736
  248CHOL    C2 2230  -0.407   6.553   7.279 -0.0872 -0.0668  0.0684
  249XCA    COO 2231   6.707   0.385   7.861  0.1140 -0.0293 -0.0708
  249XCA     C1 2232   6.448   0.378   7.435  0.1206  0.3038 -0.0299
  249XCA     C2 2233   6.573   0.367   6.993  0.0580  0.0199 -0.0995
  249XCA     C3 2234   6.899   0.308   6.925  0.1773  0.1412  0.0280
  249XCA     C4 2235   7.377   0.437   6.850 -0.1830 -0.2834 -0.2715
  249XCA     C5 2236   7.687   0.517   6.580  0.0545  0.0573 -0.1249
  249XCA     C6 2237   7.935   0.413   6.184  0.0546  0.3617 -0.0283
  250CHOL   ROH 2238   8.476   2.929   4.591 -0.0026 -0.1257 -0.2608
  250CHOL    R1 2239   8.620   2.873   4.829 -0.0595  0.0845 -0.1750
  250CHOL    R2 2240   8.567   3.001   5.068 -0.2908  0.1135 -0.2408
  250CHOL    R3 2241   8.542   2.747   5.161 -0.0956  0.1182 -0.1700
  250CHOL    R4 2242   8.649   2.898   5.388 -0.2669  0.2821 -0.1915
  250CHOL    R5 2243   8.733   2.716   5.302 -0.0947  0.3232 -0.1206
  250CHOL    C1 2244   8.674   2.599   5.661 -0.0699  0.3846 -0.0962
  250CHOL    C2 2245   8.736   2.459   6.141  0.1920  0.0684  0.0513
  251XCA    COO 2246  12.937   4.229   4.933  0.0300  0.3469  0.0850
  251XCA     C1 2247  12.951   4.395   5.311  0.0304 -0.1517  0.1867
  251XCA     C2 2248  12.969   4.377   5.766  0.0145 -0.3580  0.2821
  251XCA     C3 2249  13.215   4.435   6.078  0.1694 -0.1912 -0.1465
  251XCA     C4 2250  13.516   4.519   6.378 -0.0263 -0.0210 -0.0510
  251XCA     C5 2251  13.454   4.971   6.627 -0.0402  0.0353 -0.0436
  251XCA     C6 2252  13.479   5.426   6.656  0.0287 -0.2674 -0.1222
  252XCA    COO 2253   7.561   2.341   8.060  0.1293  0.1519 -0.1272
  252XCA     C1 2254   7.547   2.656   7.756  0.1364 -0.0402 -0.0802
  252XCA     C2 2255   7.541   2.721   7.312  0.1462  0.0878  0.0107
  252XCA     C3 2256   7.571   2.780   6.974  0.1508 -0.0761 -0.0328
  252XCA     C4 2257   7.432   2.948   6.570 -0.3592 -0.2038 -0.0259
  252XCA     C5 2258   7.333   3.209   6.462  0.0954  0.3006  0.1131
  252XCA     C6 2259   6.939   3.227   6.414  0.1523 -0.0133  0.1859
  253PNCE   AM1 2260  10.410  11.361   7.932 -0.6024 -0.2010  0.0660
  253PNCE   AM2 2261  10.727  11.196   7.734 -0.1404  0.1847  0.0780
  253PNCE   T1A 2262  10.061  11.384   7.590 -0.1064 -0.1922 -0.1136
  253PNCE   C2A 2263  10.025  11.415   7.183 -0.1244  0.1090 -0.0414
  253PNCE   C3A 2264  10.103  11.260   6.779  0.0966  0.0877  0.0585
  253PNCE   C1B 2265  10.339  10.995   7.572  0.2944  0.3872 -0.0294
  253PNCE   C2B 2266   9.910  10.883   7.470  0.5775  0.2014 -0.0439
  253PNCE   C3B 2267   9.756  10.915   7.092  0.1881 -0.1353  0.1448
  253PNCE   D4B 2268   9.918  10.756   6.614 -0.0794  0.0520  0.0887
  253PNCE   C5B 2269  10.164  11.132   6.301 -0.0004 -0.0593  0.0165
  253PNCE   C6B 2270  10.501  11.168   6.250  0.0096 -0.0605  0.2617
  254XCA    COO 2271  14.103  15.881   4.418 -0.1646  0.1400 -0.3153
  254XCA     C1 2272  14.086  15.818   4.887 -0.6467  0.1823  0.0143
  254XCA     C2 2273  14.120  15.729   5.324  0.2161  0.2180  0.0498
  254XCA     C3 2274  13.846  15.546   5.657 -0.1577 -0.0847  0.1834
  254XCA     C4 2275  13.732  15.322   5.921 -0.1898 -0.0584  0.1046
  254XCA     C5 2276  13.548  15.163   6.172  0.0509  0.2624  0.1964
  254XCA     C6 2277  13.522  14.871   6.416  0.4248 -0.2000 -0.1016
  255CHOL   ROH 2278   3.156   7.371   5.867 -0.0259  0.1208 -0.0113
  255CHOL    R1 2279   3.041   7.293   6.114 -0.0399  0.0476 -0.0405
  255CHOL    R2 2280   3.026   7.029   6.194  0.1317  0.0383 -0.0328
  255CHOL    R3 2281   3.153   7.123   6.416  0.0003  0.1441 -0.0012
  255CHOL    R4 2282   3.007   6.886   6.508  0.1025  0.0770 -0.0170
  255CHOL    R5 2283   2.997   7.087   6.593 -0.0412  0.0837 -0.0510
  255CHOL    C1 2284   3.114   6.891   6.899 -0.0378  0.1988  0.0219
  255CHOL    C2 2285   3.030   6.544   6.978  0.2040  0.1391  0.1119
  256PNCE   AM1 2286  11.688  12.316   7.877  0.1093 -0.3185  0.2252
  256PNCE   AM2 2287  11.651  12.582   7.976 -0.0472  0.2275 -0.2527
  256PNCE   T1A 2288  11.608  12.215   7.425  0.0388 -0.1334 -0.2927
  256PNCE   C2A 2289  11.420  11.947   7.139 -0.0992 -0.0813 -0.2233
  256PNCE   C3A 2290  11.405  11.595   6.721  0.1905  0.0432  0.1269
  256PNCE   C1B 2291  11.599  12.729   7.584  0.0086 -0.2521 -0.0180
  256PNCE   C2B 2292  11.689  12.615   7.165 -0.0384 -0.0741  0.0538
  256PNCE   C3B 2293  11.670  12.323   6.881 -0.1739 -0.1762  0.0615
  256PNCE   D4B 2294  11.442  12.229   6.509 -0.2260 -0.0317  0.0432
  256PNCE   C5B 2295  11.091  12.447   6.385  0.1058  0.3813 -0.0673
  256PNCE   C6B 2296  10.849  12.481   6.062  0.1294 -0.0159  0.3161
  257PNCE   AM1 2297   0.438  15.638   7.971  0.0566  0.1453 -0.5034
  257PNCE   AM2 2298   0.265  15.340   8.069 -0.0085 -0.0632 -0.0885
  257PNCE   T1A 2299   0.759  15.715   7.726  0.3412  0.0328 -0.3051
  257PNCE   C2A 2300   0.796  15.819   7.278 -0.2655  0.0518  0.1241
  257PNCE   C3A 2301   1.036  15.743   7.014 -0.0003 -0.2659 -0.0816
  257PNCE   C1B 2302   0.324  15.361   7.566  0.0241 -0.0751 -0.3450
  257PNCE   C2B 2303   0.330  15.567   7.101 -0.1564 -0.4689  0.2072
  257PNCE   C3B 2304   0.599  15.768   6.776 -0.1007  0.0812  0.4340
  257PNCE   D4B 2305   0.895  16.092   6.763  0.0467 -0.2858 -0.0187
  257PNCE   C5B 2306   1.293  16.141   6.787 -0.1246  0.0907  0.1105
  257PNCE   C6B 2307   1.616  16.370   6.956 -0.1212  0.1657  0.0803
  258PNCE   AM1 2308  13.493  14.211   8.565 -0.1009  0.1391 -0.0468
  258PNCE   AM2 2309  13.161  14.198   8.459 -0.1465  0.0640 -0.0326
  258PNCE   T1A 2310  13.544  14.355   8.093 -0.5426  0.3904 -0.2238
  258PNCE   C2A 2311  13.615  14.377   7.698  0.3786  0.0379 -0.0250
  258PNCE   C3A 2312  13.598  14.545   7.414  0.0462 -0.4292  0.0654
  258PNCE   C1B 2313  13.034  14.398   8.116  0.1945 -0.2236  0.0187
  258PNCE   C2B 2314  13.032  14.549   7.712  0.2581  0.1099 -0.2550
  258PNCE   C3B 2315  13.117  14.678   7.357  0.1249 -0.0637  0.1579
  258PNCE   D4B 2316  13.224  14.647   6.920  0.2458 -0.0038 -0.2843
  258PNCE   C5B 2317  13.655  14.868   6.900  0.0841 -0.3748  0.0858
  258PNCE   C6B 2318  13.960  15.113   6.816  0.3553 -0.0352 -0.1004
  259CHOL   ROH 2319  10.605  14.370   7.963  0.0134  0.0338 -0.0135
  259CHOL    R1 2320  10.735  14.353   7.712  0.0068 -0.0133 -0.0137
  259CHOL    R2 2321  10.660  14.172   7.518  0.0113 -0.0602  0.0279
  259CHOL    R3 2322  10.642  14.395   7.363 -0.0061 -0.0946 -0.0199
  259CHOL    R4 2323  10.637  14.172   7.173  0.0233 -0.1338  0.0269
  259CHOL    R5 2324  10.772  14.343   7.169  0.0056 -0.1213 -0.0045
  259CHOL    C1 2325  10.607  14.381   6.827  0.0138 -0.2089 -0.0185
  259CHOL    C2 2326  10.378  14.203   6.497  0.0673 -0.0615  0.1995
  260XCA    COO 2327   3.922  11.120   9.279  0.0547 -0.0131  0.0158
  260XCA     C1 2328   3.852  10.986   8.887 -0.0668  0.3873 -0.2145
  260XCA     C2 2329   3.886  10.775   8.520  0.2224 -0.1923 -0.4534
  260XCA     C3 2330   3.780  10.888   7.994 -0.0736 -0.1511  0.1760
  260XCA     C4 2331   3.678  11.181   7.640 -0.1918 -0.0016 -0.0147
  260XCA     C5 2332   3.902  11.307   7.292  0.0691 -0.0079  0.0146
  260XCA     C6 2333   3.813  11.408   6.830  0.0983  0.2720 -0.1116
  261PNCE   AM1 2334  14.222   7.284   9.423 -0.1466  0.3132  0.0599
  261PNCE   AM2 2335  14.467   6.967   9.369 -0.1209  0.0305  0.0854
  261PNCE   T1A 2336  14.301   7.087   8.848  0.1160 -0.1531  0.0467
  261PNCE   C2A 2337  14.297   6.668   8.623  0.2433  0.0826 -0.0423
  261PNCE   C3A 2338  13.946   6.486   8.329  0.2879 -0.0901  0.0527
  261PNCE   C1B 2339  14.778   7.143   9.017 -0.0435 -0.4505  0.0163
  261PNCE   C2B 2340  14.773   7.207   8.651 -0.2970 -0.2551 -0.1143
  261PNCE   C3B 2341  14.873   7.321   8.167  0.1446  0.0642  0.1614
  261PNCE   D4B 2342  14.923   7.483   7.783  0.2570  0.2041  0.0138
  261PNCE   C5B 2343  15.125   7.332   7.478  0.0431  0.1935 -0.2935
  261PNCE   C6B 2344  14.978   7.078   7.211  0.1018  0.0892 -0.0710
  262CHOL   ROH 2345   4.967   8.071   9.254 -0.0180 -0.1876 -0.0229
  262CHOL    R1 2346   5.124   7.970   9.041 -0.0654 -0.3121 -0.0002
  262CHOL    R2 2347   5.044   7.756   8.886 -0.3317 -0.0970 -0.1712
  262CHOL    R3 2348   5.087   7.930   8.682  0.0539 -0.0349 -0.0461
  262CHOL    R4 2349   5.142   7.666   8.567 -0.3062 -0.0608 -0.1734
  262CHOL    R5 2350   5.274   7.839   8.564 -0.0249 -0.2644  0.0010
  262CHOL    C1 2351   5.239   7.777   8.189  0.0707  0.0185 -0.0572
  262CHOL    C2 2352   5.071   7.588   7.787  0.0661 -0.0051  0.0002
  263PNCE   AM1 2353   9.099   7.152   5.143 -0.1152 -0.0646 -0.3905
  263PNCE   AM2 2354   9.284   7.488   5.106 -0.0370 -0.1337  0.0425
  263PNCE   T1A 2355   9.140   7.193   5.574  0.0637  0.1620 -0.2079
  263PNCE   C2A 2356   9.230   7.271   5.921  0.1442  0.0483 -0.0408
  263PNCE   C3A 2357   9.312   7.569   6.209 -0.0851  0.1366 -0.1585
  263PNCE   C1B 2358   9.592   7.485   5.502 -0.1332  0.2373  0.0814
  263PNCE   C2B 2359   9.774   7.358   6.027 -0.3207 -0.2213  0.0658
  263PNCE   C3B 2360   9.630   7.083   6.285 -0.1093 -0.0500  0.1823
  263PNCE   D4B 2361   9.854   6.899   6.677 -0.0718 -0.0767 -0.0618
  263PNCE   C5B 2362  10.031   6.760   6.975  0.1348 -0.1466  0.0982
  263PNCE   C6B 2363   9.931   6.527   7.144 -0.1183 -0.0516  0.2474
  264CHOL   ROH 2364   8.029   6.274   8.926 -0.0444 -0.0377  0.0289
  264CHOL    R1 2365   8.133   6.350   8.674 -0.1740  0.0987  0.0148
  264CHOL    R2 2366   8.289   6.182   8.520  0.0759  0.3159  0.0204
  264CHOL    R3 2367   8.103   6.236   8.330 -0.0245  0.0170  0.0280
  264CHOL    R4 2368   8.350   6.184   8.180  0.0609  0.4183  0.0183
  264CHOL    R5 2369   8.223   6.360   8.163 -0.2296  0.2165  0.0247
  264CHOL    C1 2370   8.210   6.236   7.803 -0.0421  0.1973  0.0241
  264CHOL    C2 2371   8.372   6.112   7.453  0.1770 -0.0473 -0.2710
  265XCA    COO 2372  12.737   7.857   5.075  0.2588  0.0824 -0.1275
  265XCA     C1 2373  12.602   7.996   5.357  0.0034 -0.0149 -0.1608
  265XCA     C2 2374  12.818   8.162   5.778 -0.1907 -0.1191 -0.0499
  265XCA     C3 2375  12.663   8.107   6.141  0.0121  0.0029 -0.0333
  265XCA     C4 2376  12.291   8.252   6.284 -0.3521  0.0855  0.0830
  265XCA     C5 2377  11.885   8.193   6.161 -0.2089  0.3365 -0.1387
  265XCA     C6 2378  11.423   8.078   6.178 -0.0357 -0.1201  0.1897
  266PNCE   AM1 2379   1.418   8.775   9.302 -0.1203  0.4707 -0.2563
  266PNCE   AM2 2380   1.118   8.863   9.361  0.0647  0.0118 -0.2130
  266PNCE   T1A 2381   1.489   8.711   8.890 -0.0977 -0.2665  0.1256
  266PNCE   C2A 2382   1.694   8.640   8.456  0.0136  0.0294 -0.1528
  266PNCE   C3A 2383   1.679   8.810   8.039  0.2849  0.2711  0.1403
  266PNCE   C1B 2384   0.971   8.712   8.987 -0.0516 -0.0764  0.1540
  266PNCE   C2B 2385   0.646   8.563   8.646 -0.2307 -0.1166 -0.0549
  266PNCE   C3B 2386   0.391   8.665   8.279 -0.1287  0.2138  0.1596
  266PNCE   D4B 2387  -0.005   8.597   8.085 -0.1681 -0.1623 -0.0770
  266PNCE   C5B 2388  -0.155   8.766   7.665  0.1887 -0.2689 -0.0799
  266PNCE   C6B 2389  -0.299   8.747   7.259 -0.1367  0.0398  0.3277
  267PNCE   AM1 2390  10.974  13.481   8.103  0.0236  0.0042 -0.3171
  267PNCE   AM2 2391  11.267  13.448   8.102 -0.1214 -0.0743 -0.0385
  267PNCE   T1A 2392  10.816  13.235   7.829 -0.2289 -0.0745 -0.2513
  267PNCE   C2A 2393  10.641  13.192   7.355  0.2582  0.1423  0.0911
  267PNCE   C3A 2394  10.602  13.312   6.879  0.1872 -0.1775  0.2207
  267PNCE   C1B 2395  11.312  13.279   7.699 -0.3160 -0.0048 -0.1338
  267PNCE   C2B 2396  11.374  13.501   7.247 -0.0240 -0.0000 -0.1035
  267PNCE   C3B 2397  11.352  13.772   6.845  0.0827 -0.4937 -0.0650
  267PNCE   D4B 2398  11.408  14.109   6.531 -0.1837 -0.0806 -0.1677
  267PNCE   C5B 2399  11.809  14.390   6.414  0.4236  0.0161  0.2448
  267PNCE   C6B 2400  12.074  14.500   6.070 -0.1703 -0.0888  0.0531
  268CHOL   ROH 2401  14.656  15.092   8.370  0.1688  0.1620  0.0332
  268CHOL    R1 2402  14.586  14.903   8.171  0.0747  0.1485  0.0797
  268CHOL    R2 2403  14.410  14.962   7.966  0.1204  0.1920  0.0570
  268CHOL    R3 2404  14.615  14.877   7.810  0.0798  0.0338  0.0872
  268CHOL    R4 2405  14.385  14.892   7.629  0.0929  0.1352  0.0703
  268CHOL    R5 2406  14.514  14.719   7.660 -0.0108  0.0606  0.1159
  268CHOL    C1 2407  14.562  14.770   7.285  0.0388 -0.0464  0.1065
  268CHOL    C2 2408  14.399  14.812   6.890 -0.1181  0.1754 -0.0786
  269XCA    COO 2409   4.284   1.346   8.624  0.1469  0.0131 -0.2224
  269XCA     C1 2410   4.292   1.140   8.130 -0.1259 -0.1410 -0.0914
  269XCA     C2 2411   4.201   1.222   7.776 -0.1045 -0.0737 -0.2529
  269XCA     C3 2412   4.201   1.302   7.413  0.1597  0.1430 -0.1114
  269XCA     C4 2413   3.964   1.209   6.985 -0.1044 -0.0831 -0.0625
  269XCA     C5 2414   3.701   0.988   6.656 -0.1395 -0.0084 -0.2435
  269XCA     C6 2415   3.804   0.653   6.402 -0.0418 -0.0794 -0.0659
  270CHOL   ROH 2416   9.872   9.366   8.202  0.0712  0.1513 -0.1809
  270CHOL    R1 2417   9.855   9.374   7.920  0.0947  0.0050 -0.1878
  270CHOL    R2 2418   9.997   9.555   7.767 -0.0121  0.0326 -0.2605
  270CHOL    R3 2419  10.083   9.331   7.640  0.1549  0.0280 -0.1412
  270CHOL    R4 2420  10.042   9.525   7.425  0.0814 -0.0994 -0.2371
  270CHOL    R5 2421   9.957   9.325   7.436  0.2048 -0.1448 -0.1659
  270CHOL    C1 2422  10.148   9.297   7.107  0.2928 -0.1806 -0.1114
  270CHOL    C2 2423  10.312   9.071   6.820  0.1173  0.0071  0.2922
  271XCA    COO 2424   1.297   1.839   8.313 -0.0293  0.5888 -0.0844
  271XCA     C1 2425   1.181   1.834   7.833 -0.1250  0.2328 -0.0526
  271XCA     C2 2426   0.860   1.720   7.557 -0.2825  0.0955 -0.1268
  271XCA     C3 2427   0.884   1.527   7.182 -0.0922  0.2792  0.0808
  271XCA     C4 2428   1.095   1.391   6.869  0.0398 -0.3237 -0.0582
  271XCA     C5 2429   1.331   1.629   6.577  0.1276  0.1585 -0.0418
  271XCA     C6 2430   1.552   1.904   6.276 -0.4093  0.1441  0.1548
  272PNCE   AM1 2431  12.838   4.792   8.936 -0.0965  0.1694  0.1987
  272PNCE   AM2 2432  12.577   4.802   8.727  0.1959  0.1874 -0.0127
  272PNCE   T1A 2433  13.187   4.713   8.576  0.1675  0.2587  0.0917
  272PNCE   C2A 2434  13.479   5.072   8.556 -0.1099  0.2256  0.0271
  272PNCE   C3A 2435  13.723   5.229   8.171 -0.0166  0.1079 -0.1731
  272PNCE   C1B 2436  12.796   5.123   8.513 -0.0533  0.4524 -0.1112
  272PNCE   C2B 2437  12.705   5.474   8.221 -0.1334  0.0470  0.2726
  272PNCE   C3B 2438  12.248   5.613   8.026  0.0969  0.0935 -0.0611
  272PNCE   D4B 2439  11.719   5.561   8.270 -0.3723 -0.0853  0.1701
  272PNCE   C5B 2440  11.517   5.293   8.062 -0.2905 -0.2084  0.0969
  272PNCE   C6B 2441  11.264   5.511   7.691 -0.2192  0.0798  0.1840
  273CHOL   ROH 2442  13.587   3.721   8.472 -0.1808  0.1361 -0.0206
  273CHOL    R1 2443  13.651   3.769   8.200  0.0551  0.0899  0.0236
  273CHOL    R2 2444  13.470   3.880   8.022  0.1019 -0.2132 -0.2264
  273CHOL    R3 2445  13.671   4.058   7.980 -0.0698  0.0189 -0.0816
  273CHOL    R4 2446  13.506   4.074   7.738  0.0527 -0.1212 -0.1698
  273CHOL    R5 2447  13.721   4.038   7.747  0.0877  0.1163 -0.0554
  273CHOL    C1 2448  13.716   4.354   7.534 -0.1371  0.1504 -0.0009
  273CHOL    C2 2449  13.958   4.689   7.417 -0.2489  0.2505  0.2681
  274CHOL   ROH 2450   1.526   1.765   4.915 -0.1614 -0.1225 -0.0127
  274CHOL    R1 2451   1.498   1.673   5.182 -0.0379 -0.1385 -0.0037
  274CHOL    R2 2452   1.594   1.815   5.398 -0.0529 -0.0843 -0.0280
  274CHOL    R3 2453   1.338   1.793   5.486 -0.0181 -0.2230  0.0388
  274CHOL    R4 2454   1.492   1.863   5.725 -0.0186 -0.0112 -0.0284
  274CHOL    R5 2455   1.358   1.693   5.703  0.0955 -0.1123  0.0773
  274CHOL    C1 2456   1.193   1.870   5.998  0.0340 -0.0988  0.0340
  274CHOL    C2 2457   0.923   1.836   6.252 -0.0805  0.2908 -0.2800
  275CHOL   ROH 2458   1.407   7.271   5.693 -0.0095 -0.0118 -0.0877
  275CHOL    R1 2459   1.319   7.097   5.898  0.0637  0.0199 -0.0298
  275CHOL    R2 2460   1.441   7.085   6.146  0.0044  0.2281  0.0071
  275CHOL    R3 2461   1.189   7.131   6.237 -0.0554  0.0821 -0.0800
  275CHOL    R4 2462   1.329   7.008   6.463  0.0551  0.4886  0.0915
  275CHOL    R5 2463   1.141   6.941   6.375  0.1263  0.1889  0.1421
  275CHOL    C1 2464   1.027   7.005   6.734  0.0285  0.5031  0.0588
  275CHOL    C2 2465   0.885   6.906   7.141  0.4520  0.0603 -0.1966
  276PNCE   AM1 2466  10.158  13.242   7.419 -0.1439 -0.1919 -0.1219
  276PNCE   AM2 2467   9.781  13.218   7.481 -0.2437 -0.3242  0.0640
  276PNCE   T1A 2468  10.091  13.076   6.916  0.1686 -0.1104 -0.2218
  276PNCE   C2A 2469  10.135  12.942   6.557 -0.1552  0.0076 -0.0187
  276PNCE   C3A 2470   9.959  13.116   6.211 -0.1510  0.0163  0.1362
  276PNCE   C1B 2471   9.879  12.805   7.271 -0.0945 -0.1399 -0.2744
  276PNCE   C2B 2472   9.781  12.699   6.806  0.0622 -0.0115  0.1336
  276PNCE   C3B 2473   9.619  12.809   6.463  0.0759  0.1293 -0.0574
  276PNCE   D4B 2474   9.262  13.031   6.302 -0.2407  0.1408 -0.0071
  276PNCE   C5B 2475   9.259  13.214   5.811 -0.1500 -0.0592 -0.1302
  276PNCE   C6B 2476   9.025  13.328   5.340  0.6395  0.1027  0.1381
  277PNCE   AM1 2477  13.883   0.179   8.384  0.0136  0.2345  0.1870
  277PNCE   AM2 2478  13.719   0.031   8.188  0.1508 -0.1402  0.0402
  277PNCE   T1A 2479  14.111   0.488   8.300 -0.4293 -0.1440 -0.0869
  277PNCE   C2A 2480  14.563   0.727   8.173 -0.0049  0.0585 -0.0066
  277PNCE   C3A 2481  14.988   0.613   7.981 -0.0514 -0.1361 -0.0490
  277PNCE   C1B 2482  14.093  -0.132   7.961  0.0012 -0.1262 -0.0896
  277PNCE   C2B 2483  14.221  -0.086   7.659  0.1259 -0.0117  0.0197
  277PNCE   C3B 2484  14.133  -0.085   7.232 -0.1291  0.0974 -0.2521
  277PNCE   D4B 2485  14.200   0.149   6.884 -0.0553  0.2376 -0.1256
  277PNCE   C5B 2486  13.970   0.079   6.530 -0.0025  0.0985  0.0042
  277PNCE   C6B 2487  13.771  -0.045   6.057 -0.1127 -0.2197  0.0144
  278PNCE   AM1 2488   8.914   9.262   8.547 -0.1469 -0.2252 -0.0656
  278PNCE   AM2 2489   9.304   9.297   8.471  0.2337  0.1184  0.3635
  278PNCE   T1A 2490   8.716   9.432   8.132 -0.1515 -0.4959 -0.0912
  278PNCE   C2A 2491   8.576   9.637   7.740 -0.0119 -0.0277 -0.1642
  278PNCE   C3A 2492   8.675   9.591   7.208 -0.1159  0.2109  0.0293
  278PNCE   C1B 2493   9.194   9.408   8.017  0.0503 -0.2328  0.1049
  278PNCE   C2B 2494   9.419   9.345   7.510  0.0744  0.0646 -0.3806
  278PNCE   C3B 2495   9.274   9.784   7.207  0.0157 -0.4396 -0.1835
  278PNCE   D4B 2496   9.366  10.156   7.114 -0.0713  0.3127  0.1639
  278PNCE   C5B 2497   9.491  10.514   6.890  0.1537  0.3716 -0.0761
  278PNCE   C6B 2498   9.282  10.898   6.791  0.0920  0.0621  0.0081
  279CHOL   ROH 2499  12.848   3.453   7.985  0.1331 -0.1359  0.1340
  279CHOL    R1 2500  12.853   3.504   7.706  0.1601 -0.0158  0.1554
  279CHOL    R2 2501  13.066   3.431   7.546  0.1480 -0.0077  0.1318
  279CHOL    R3 2502  12.872   3.306   7.402  0.1169  0.1100  0.0708
  279CHOL    R4 2503  13.102   3.320   7.220  0.1628  0.0161  0.1258
  279CHOL    R5 2504  12.900   3.389   7.179  0.2090  0.1241  0.0889
  279CHOL    C1 2505  12.942   3.137   6.896  0.1421  0.1404  0.0652
  279CHOL    C2 2506  12.761   3.237   6.549 -0.2730 -0.1694  0.0730
  280PNCE   AM1 2507  14.213   2.785   8.992  0.4973 -0.0876 -0.0537
  280PNCE   AM2 2508  14.134   2.991   8.769 -0.0140 -0.0767 -0.2184
  280PNCE   T1A 2509  13.999   2.593   8.576  0.4425  0.2255  0.5157
  280PNCE   C2A 2510  14.050   2.621   8.096 -0.4060 -0.0067  0.0485
  280PNCE   C3A 2511  14.007   2.923   7.762 -0.1517  0.2492 -0.1199
  280PNCE   C1B 2512  14.039   3.001   8.357 -0.1744 -0.2493 -0.1964
  280PNCE   C2B 2513  13.923   3.300   8.086  0.0783  0.0742  0.1327
  280PNCE   C3B 2514  13.913   3.429   7.659 -0.0971  0.4261 -0.4835
  280PNCE   D4B 2515  14.133   3.561   7.298 -0.2182 -0.1671  0.3560
  280PNCE   C5B 2516  14.200   3.199   7.070  0.0538  0.0136 -0.2224
  280PNCE   C6B 2517  14.300   2.907   6.704 -0.1316 -0.1661 -0.1080
  281XCA    COO 2518   0.627   9.764   5.307 -0.0027 -0.1182 -0.1166
  281XCA     C1 2519   0.857   9.883   5.616 -0.0738  0.0172 -0.1937
  281XCA     C2 2520   0.874  10.019   6.065  0.1758  0.1413 -0.0689
  281XCA     C3 2521   0.678  10.184   6.380  0.0254 -0.0149  0.1684
  281XCA     C4 2522   0.889  10.390   6.715 -0.0654 -0.1624  0.1722
  281XCA     C5 2523   1.333  10.286   6.738  0.1177  0.0930 -0.0946
  281XCA     C6 2524   1.763  10.111   6.692 -0.2310 -0.3151 -0.1511
  282CHOL   ROH 2525   5.039   8.991   7.216 -0.0186  0.0287  0.2532
  282CHOL    R1 2526   5.234   9.194   7.182 -0.1241  0.1290  0.2353
  282CHOL    R2 2527   5.257   9.408   7.355 -0.0571  0.0114  0.3779
  282CHOL    R3 2528   5.516   9.324   7.372 -0.0099  0.0919  0.0922
  282CHOL    R4 2529   5.524   9.609   7.442 -0.0395  0.0647  0.2014
  282CHOL    R5 2530   5.643   9.509   7.288 -0.1534  0.1693  0.0441
  282CHOL    C1 2531   5.922   9.648   7.508  0.0151  0.1712 -0.1695
  282CHOL    C2 2532   6.120   9.865   7.699 -0.0980  0.0371 -0.0124
  283CHOL   ROH 2533  14.063   2.193   5.452  0.1543  0.0229 -0.1846
  283CHOL    R1 2534  14.185   2.103   5.691  0.1419 -0.0299 -0.1974
  283CHOL    R2 2535  14.426   2.202   5.782  0.1418 -0.0523 -0.1641
  283CHOL    R3 2536  14.284   2.250   6.009  0.1291 -0.0968 -0.1632
  283CHOL    R4 2537  14.564   2.266   6.092  0.1181 -0.0497 -0.1544
  283CHOL    R5 2538  14.409   2.142   6.182  0.1424 -0.0839 -0.1682
  283CHOL    C1 2539  14.511   2.349   6.486  0.0923 -0.0899 -0.1478
  283CHOL    C2 2540  14.528   2.445   6.911  0.2350  0.2477  0.3624
  284CHOL   ROH 2541   4.837   9.362   5.780  0.2012  0.0608 -0.0621
  284CHOL    R1 2542   4.671   9.332   6.007  0.1434 -0.0031 -0.1122
  284CHOL    R2 2543   4.762   9.373   6.265  0.0430  0.0592 -0.0863
  284CHOL    R3 2544   4.552   9.545   6.278 -0.0445 -0.0406 -0.1638
  284CHOL    R4 2545   4.628   9.500   6.557 -0.0474  0.0896 -0.1404
  284CHOL    R5 2546   4.429   9.475   6.471 -0.0278 -0.0381 -0.1518
  284CHOL    C1 2547   4.353   9.735   6.740 -0.1822  0.0136 -0.2447
  284CHOL    C2 2548   4.498  10.059   6.892  0.4114  0.3441 -0.2195
  285PNCE   AM1 2549   2.203   9.815   9.133 -0.3697 -0.1297  0.2184
  285PNCE   AM2 2550   1.987  10.033   9.020 -0.4853 -0.0353 -0.0934
  285PNCE   T1A 2551   2.228   9.356   9.063  0.0385  0.2182  0.2363
  285PNCE   C2A 2552   2.432   8.924   8.840  0.1508 -0.1174 -0.3322
  285PNCE   C3A 2553   2.814   8.672   8.917 -0.0542 -0.2325  0.0784
  285PNCE   C1B 2554   1.666  10.126   8.835  0.0034  0.1001 -0.0715
  285PNCE   C2B 2555   1.330  10.087   8.505 -0.1153 -0.2288  0.1873
  285PNCE   C3B 2556   1.104   9.953   8.215 -0.3282 -0.1210  0.2606
  285PNCE   D4B 2557   1.178   9.793   7.840  0.3223 -0.3650 -0.0575
  285PNCE   C5B 2558   1.549   9.799   7.620  0.1753  0.0678  0.0207
  285PNCE   C6B 2559   1.891   9.636   7.647  0.0352 -0.2881 -0.1301
  286CHOL   ROH 2560  11.748   6.751   8.706  0.0340  0.1525 -0.0207
  286CHOL    R1 2561  11.935   6.635   8.529 -0.0183  0.0865 -0.0332
  286CHOL    R2 2562  11.861   6.513   8.291 -0.0673  0.2153 -0.0861
  286CHOL    R3 2563  12.041   6.687   8.184  0.0638  0.1337 -0.0008
  286CHOL    R4 2564  12.043   6.456   8.004  0.1480  0.0804  0.0743
  286CHOL    R5 2565  12.216   6.546   8.101  0.0943  0.0641  0.1808
  286CHOL    C1 2566  12.319   6.585   7.736  0.3962 -0.0747  0.2479
  286CHOL    C2 2567  12.421   6.561   7.465  0.0853 -0.2413 -0.0851
  287PNCE   AM1 2568   1.484   3.129   8.413 -0.2788 -0.1959 -0.0820
  287PNCE   AM2 2569   1.404   2.870   8.540  0.0288  0.0558 -0.3793
  287PNCE   T1A 2570   1.375   3.210   7.966  0.0736 -0.2370  0.2582
  287PNCE   C2A 2571   1.345   3.291   7.433 -0.1551 -0.2139 -0.0901
  287PNCE   C3A 2572   1.480   3.146   7.014  0.0780  0.1177  0.1800
  287PNCE   C1B 2573   1.504   2.666   8.146  0.0100  0.3084 -0.1739
  287PNCE   C2B 2574   1.490   2.665   7.691 -0.2737 -0.1438 -0.0487
  287PNCE   C3B 2575   1.215   2.803   7.394 -0.1626 -0.1694  0.1286
  287PNCE   D4B 2576   0.925   2.496   7.033  0.0685  0.1708 -0.1035
  287PNCE   C5B 2577   0.681   2.805   6.752 -0.1643  0.0249  0.4620
  287PNCE   C6B 2578   0.742   2.922   6.237 -0.1913  0.1256  0.2622
  288XCA    COO 2579   7.453   6.308   8.988 -0.3818 -0.3354  0.2267
  288XCA     C1 2580   7.663   6.612   8.739 -0.3489  0.0428  0.3673
  288XCA     C2 2581   7.703   6.558   8.261 -0.0305  0.2377  0.1237
  288XCA     C3 2582   7.814   6.471   7.899 -0.0279  0.0393 -0.0793
  288XCA     C4 2583   7.897   6.446   7.514  0.0585 -0.2374  0.1136
  288XCA     C5 2584   8.154   6.367   7.109 -0.2532 -0.1341  0.1059
  288XCA     C6 2585   8.364   6.122   6.927 -0.2990 -0.3947  0.0939
  289CHOL   ROH 2586   3.892  12.922   4.832 -0.1405  0.0369  0.0625
  289CHOL    R1 2587   3.916  12.696   5.000 -0.1095 -0.0276 -0.0275
  289CHOL    R2 2588   3.874  12.707   5.273  0.0747 -0.1024  0.0075
  289CHOL    R3 2589   3.698  12.507   5.222 -0.0313 -0.0214  0.0539
  289CHOL    R4 2590   3.741  12.495   5.511  0.0749 -0.0754  0.0315
  289CHOL    R5 2591   3.763  12.331   5.370 -0.0511 -0.0668  0.0056
  289CHOL    C1 2592   3.498  12.184   5.602 -0.0244  0.0164  0.0891
  289CHOL    C2 2593   3.252  12.059   5.828 -0.1044  0.0904  0.1567
  290PNCE   AM1 2594   1.567   6.405   9.503  0.1844 -0.0159  0.1503
  290PNCE   AM2 2595   1.279   6.409   9.292 -0.3729 -0.3406 -0.0954
  290PNCE   T1A 2596   1.742   6.537   9.093  0.3495 -0.2132 -0.2492
  290PNCE   C2A 2597   1.810   6.419   8.646  0.0285  0.1548  0.1255
  290PNCE   C3A 2598   1.991   6.505   8.275  0.0444  0.2760  0.1419
  290PNCE   C1B 2599   1.296   6.575   8.908  0.1851  0.0542  0.1225
  290PNCE   C2B 2600   1.364   6.687   8.470 -0.2136 -0.0687 -0.0244
  290PNCE   C3B 2601   1.534   6.751   8.122  0.1305  0.0206  0.0828
  290PNCE   D4B 2602   1.547   6.542   7.781 -0.0143 -0.0945  0.3548
  290PNCE   C5B 2603   1.608   6.728   7.406 -0.0834 -0.2303 -0.1583
  290PNCE   C6B 2604   1.929   7.071   7.268 -0.1221 -0.0011  0.4059
  291XCA    COO 2605  14.365   5.856   4.627  0.4838  0.3400 -0.1965
  291XCA     C1 2606  14.523   6.074   5.015  0.1785  0.0497  0.2728
  291XCA     C2 2607  14.374   6.198   5.425 -0.1415 -0.1499  0.0221
  291XCA     C3 2608  14.378   6.398   5.797 -0.1245  0.0274  0.3912
  291XCA     C4 2609  14.199   6.488   6.133  0.2122  0.0909  0.1468
  291XCA     C5 2610  14.085   6.454   6.594 -0.2782  0.0069  0.0428
  291XCA     C6 2611  13.775   6.365   6.882  0.4099  0.2078 -0.3696
  292CHOL   ROH 2612  15.752  15.535   4.711  0.0167 -0.0242  0.0131
  292CHOL    R1 2613  15.916  15.557   4.940 -0.0217  0.0484  0.0328
  292CHOL    R2 2614  15.896  15.768   5.118 -0.0932  0.0702 -0.0070
  292CHOL    R3 2615  15.867  15.569   5.301 -0.0738  0.0959  0.0254
  292CHOL    R4 2616  15.974  15.796   5.453  0.1233  0.0668 -0.0553
  292CHOL    R5 2617  16.057  15.594   5.445  0.0292  0.0250 -0.0905
  292CHOL    C1 2618  15.993  15.625   5.820  0.2674  0.0890 -0.0531
  292CHOL    C2 2619  15.908  15.787   6.096  0.1206  0.1914  0.0999
  293CHOL   ROH 2620  13.762   6.831   8.613 -0.0245  0.1277 -0.0262
  293CHOL    R1 2621  13.890   7.012   8.436 -0.0792  0.2096  0.0164
  293CHOL    R2 2622  14.079   6.930   8.253  0.1402  0.3497  0.1733
  293CHOL    R3 2623  13.915   7.055   8.075  0.1363  0.1319  0.0210
  293CHOL    R4 2624  14.175   7.039   7.939  0.2658  0.4030  0.2300
  293CHOL    R5 2625  14.055   7.219   7.970  0.0337  0.2737  0.1049
  293CHOL    C1 2626  14.076   7.220   7.589  0.3353  0.2296  0.1200
  293CHOL    C2 2627  14.276   7.331   7.164 -0.0161 -0.0579  0.0269
  294PNCE   AM1 2628   4.618   3.416   8.883 -0.2378 -0.0217 -0.1688
  294PNCE   AM2 2629   4.519   3.718   8.701  0.0234  0.1024  0.2598
  294PNCE   T1A 2630   4.686   3.216   8.476 -0.1452 -0.1965  0.0100
  294PNCE   C2A 2631   4.625   3.319   8.010 -0.0894  0.2754 -0.4136
  294PNCE   C3A 2632   4.574   3.412   7.572  0.2010 -0.1861  0.0995
  294PNCE   C1B 2633   4.576   3.799   8.303  0.0128  0.0785 -0.2015
  294PNCE   C2B 2634   4.509   3.816   7.817  0.1438  0.1042  0.0970
  294PNCE   C3B 2635   4.557   3.970   7.405  0.1547 -0.2680  0.3859
  294PNCE   D4B 2636   4.702   4.355   7.120 -0.0821 -0.1629 -0.0982
  294PNCE   C5B 2637   4.697   4.511   6.657  0.0446 -0.0427  0.0384
  294PNCE   C6B 2638   4.405   4.342   6.368  0.3604  0.3690  0.0408
  295CHOL   ROH 2639   3.615  15.149   8.615 -0.0323 -0.0094 -0.0014
  295CHOL    R1 2640   3.728  15.061   8.371 -0.0305  0.1617 -0.0626
  295CHOL    R2 2641   3.785  15.233   8.162  0.0761  0.3249  0.1023
  295CHOL    R3 2642   4.033  15.124   8.182  0.0277  0.2007  0.0427
  295CHOL    R4 2643   3.981  15.137   7.894 -0.0447  0.2079  0.0538
  295CHOL    R5 2644   4.040  14.961   8.007 -0.1029  0.1837  0.0502
  295CHOL    C1 2645   4.327  14.979   7.757 -0.1605  0.0232 -0.0305
  295CHOL    C2 2646   4.519  14.850   7.385 -0.2917  0.0501  0.4704
  296PNCE   AM1 2647  11.680  14.654   8.303  0.0568 -0.2399  0.2015
  296PNCE   AM2 2648  11.858  14.943   8.273 -0.0282 -0.0469 -0.1505
  296PNCE   T1A 2649  11.663  14.624   7.776 -0.0051 -0.0172 -0.1282
  296PNCE   C2A 2650  11.438  14.532   7.332 -0.0340 -0.0348 -0.2504
  296PNCE   C3A 2651  11.485  14.732   7.010 -0.0818  0.1461  0.2050
  296PNCE   C1B 2652  11.959  15.281   7.925  0.0710 -0.1952  0.1732
  296PNCE   C2B 2653  11.950  15.426   7.529  0.0769  0.1050 -0.1545
  296PNCE   C3B 2654  11.945  15.503   7.169 -0.2585  0.2427  0.0378
  296PNCE   D4B 2655  12.044  15.814   6.890  0.1089  0.1699  0.0805
  296PNCE   C5B 2656  12.209  15.801   6.529  0.1023 -0.0939  0.3814
  296PNCE   C6B 2657  12.263  15.825   6.081 -0.0102  0.0333 -0.1614
  297XCA    COO 2658   5.476   2.259   8.712  0.1455 -0.4121 -0.1567
  297XCA     C1 2659   5.650   2.482   8.257  0.0823  0.2286  0.0222
  297XCA     C2 2660   5.383   2.818   7.970  0.3315  0.1959 -0.1485
  297XCA     C3 2661   5.399   2.856   7.636 -0.0347  0.1161 -0.2407
  297XCA     C4 2662   5.466   2.764   7.231 -0.0753 -0.0123  0.1079
  297XCA     C5 2663   5.344   2.921   6.919 -0.0250  0.1757 -0.1383
  297XCA     C6 2664   5.005   3.184   6.774 -0.2232  0.2306  0.0733
  298CHOL   ROH 2665   5.210   3.974   5.005  0.1797  0.0597  0.0655
  298CHOL    R1 2666   5.091   3.987   5.261 -0.0137  0.0003 -0.0188
  298CHOL    R2 2667   4.871   3.836   5.331 -0.0121 -0.0826 -0.1907
  298CHOL    R3 2668   5.031   3.757   5.537 -0.1341 -0.0397 -0.0777
  298CHOL    R4 2669   4.759   3.685   5.622 -0.1601 -0.3142 -0.3647
  298CHOL    R5 2670   4.903   3.805   5.733 -0.3645 -0.2395 -0.1717
  298CHOL    C1 2671   4.844   3.523   5.983 -0.3608 -0.4087 -0.3598
  298CHOL    C2 2672   4.787   3.139   6.291 -0.1006  0.2242  0.0570
  299PNCE   AM1 2673   0.853   5.416   9.256  0.4476 -0.1249  0.1720
  299PNCE   AM2 2674   0.714   5.089   9.203  0.1900 -0.2915 -0.2323
  299PNCE   T1A 2675   1.049   5.629   8.968  0.0541 -0.2612 -0.2029
  299PNCE   C2A 2676   0.953   5.839   8.625 -0.1466  0.1583  0.1290
  299PNCE   C3A 2677   0.894   5.949   8.175  0.0608 -0.1830  0.1230
  299PNCE   C1B 2678   0.982   5.184   8.823  0.3638  0.1421  0.0621
  299PNCE   C2B 2679   0.940   5.387   8.438  0.3102  0.5222 -0.0663
  299PNCE   C3B 2680   0.888   5.266   8.055 -0.2405  0.1117  0.0525
  299PNCE   D4B 2681   0.851   5.186   7.618 -0.0386 -0.1530  0.1146
  299PNCE   C5B 2682   0.547   5.288   7.198 -0.1105  0.2820  0.3850
  299PNCE   C6B 2683   0.154   5.099   7.012  0.4075  0.1696  0.2590
  300XCA    COO 2684   1.820   1.513   4.560 -0.2052 -0.0743 -0.1715
  300XCA     C1 2685   1.672   1.280   4.999 -0.0333  0.0207  0.0210
  300XCA     C2 2686   1.689   1.348   5.407 -0.4659  0.0526  0.3095
  300XCA     C3 2687   1.741   1.418   5.821  0.2614  0.0760 -0.2242
  300XCA     C4 2688   2.006   1.662   6.142 -0.0283 -0.0768  0.3732
  300XCA     C5 2689   2.026   2.090   6.227 -0.2033 -0.2515 -0.0018
  300XCA     C6 2690   2.085   2.477   5.865 -0.2192 -0.0105 -0.1378
  301CHOL   ROH 2691  13.972  11.216   6.686  0.0740 -0.1348  0.1613
  301CHOL    R1 2692  13.775  11.392   6.787  0.1520  0.0339  0.0266
  301CHOL    R2 2693  13.610  11.325   6.998 -0.2053  0.0810 -0.2236
  301CHOL    R3 2694  13.705  11.557   7.103 -0.0515 -0.1027  0.0534
  301CHOL    R4 2695  13.523  11.451   7.308 -0.5017  0.0174 -0.2789
  301CHOL    R5 2696  13.517  11.651   7.219 -0.1035  0.0784 -0.1760
  301CHOL    C1 2697  13.561  11.743   7.587 -0.5299 -0.1920 -0.0510
  301CHOL    C2 2698  13.500  12.034   7.861 -0.1350  0.3105  0.3497
  302CHOL   ROH 2699   6.285   4.553   6.038  0.0679 -0.0302  0.3122
  302CHOL    R1 2700   6.457   4.387   6.189  0.0429 -0.1138  0.2515
  302CHOL    R2 2701   6.683   4.270   6.082  0.0174 -0.1266  0.2032
  302CHOL    R3 2702   6.806   4.392   6.292  0.0489 -0.2155  0.2349
  302CHOL    R4 2703   6.995   4.185   6.205  0.0285 -0.1902  0.1286
  302CHOL    R5 2704   6.917   4.214   6.407  0.0557 -0.2661  0.1494
  302CHOL    C1 2705   7.291   4.249   6.474  0.0646 -0.3107  0.1149
  302CHOL    C2 2706   7.651   4.030   6.612 -0.0152 -0.0227 -0.0014
  303XCA    COO 2707   5.955   0.874   7.871 -0.0771 -0.2232  0.1532
  303XCA     C1 2708   6.041   1.343   7.703 -0.0120  0.2542 -0.2159
  303XCA     C2 2709   5.977   1.281   7.235 -0.3749 -0.4124 -0.2645
  303XCA     C3 2710   5.670   0.978   7.000 -0.0967 -0.0165  0.0383
  303XCA     C4 2711   5.275   0.786   7.199  0.1996 -0.0766 -0.0408
  303XCA     C5 2712   5.065   0.763   7.665  0.1369  0.0390  0.0182
  303XCA     C6 2713   5.030   0.765   8.093  0.0385  0.1137 -0.0447
  304PNCE   AM1 2714   4.711   2.254   8.588  0.2025 -0.0655 -0.1115
  304PNCE   AM2 2715   4.964   2.125   8.486 -0.2922  0.3245 -0.1082
  304PNCE   T1A 2716   4.413   2.171   8.206  0.0302 -0.1205 -0.1085
  304PNCE   C2A 2717   4.341   2.427   7.797  0.3139  0.2971  0.0762
  304PNCE   C3A 2718   4.450   2.477   7.358 -0.0280  0.0834  0.1344
  304PNCE   C1B 2719   4.956   2.285   8.142  0.0722  0.1085 -0.0684
  304PNCE   C2B 2720   4.768   2.174   7.793 -0.0304  0.0286  0.1242
  304PNCE   C3B 2721   4.688   2.063   7.402 -0.3410 -0.0229 -0.1939
  304PNCE   D4B 2722   4.962   2.044   7.053  0.0993 -0.1340 -0.1497
  304PNCE   C5B 2723   5.341   1.753   7.027 -0.3862 -0.0839 -0.0629
  304PNCE   C6B 2724   5.470   1.330   7.261 -0.2146 -0.1467  0.0154
  305CHOL   ROH 2725   0.666   6.282   9.284  0.1921  0.0126  0.0617
  305CHOL    R1 2726   0.802   6.399   9.065  0.3867 -0.2181  0.0538
  305CHOL    R2 2727   0.931   6.248   8.872 -0.0666 -0.4607 -0.0830
  305CHOL    R3 2728   0.775   6.392   8.703  0.1929  0.0118  0.0639
  305CHOL    R4 2729   0.988   6.283   8.533 -0.1023 -0.3390 -0.0756
  305CHOL    R5 2730   0.930   6.492   8.550  0.3653 -0.2181  0.0910
  305CHOL    C1 2731   0.874   6.438   8.176  0.1206  0.1754  0.0665
  305CHOL    C2 2732   1.007   6.364   7.830 -0.0953 -0.1949 -0.1098
  306CHOL   ROH 2733   5.936   3.484   7.243 -0.0225 -0.0073  0.0436
  306CHOL    R1 2734   6.025   3.580   6.992 -0.0004 -0.0325  0.0417
  306CHOL    R2 2735   5.977   3.838   6.905  0.0783 -0.0162  0.0459
  306CHOL    R3 2736   6.247   3.842   6.872  0.0788 -0.1010  0.0372
  306CHOL    R4 2737   6.147   4.057   6.699  0.1360 -0.0989  0.0055
  306CHOL    R5 2738   6.278   3.892   6.640  0.0862 -0.1472  0.0280
  306CHOL    C1 2739   6.500   4.188   6.547  0.1701 -0.2266 -0.0262
  306CHOL    C2 2740   6.500   4.640   6.561 -0.1353  0.2816  0.0868
  307CHOL   ROH 2741  11.490  15.184   8.171  0.1508 -0.1083  0.0230
  307CHOL    R1 2742  11.531  15.048   7.927 -0.0595 -0.0309 -0.0585
  307CHOL    R2 2743  11.388  15.105   7.698 -0.0225  0.2805 -0.0103
  307CHOL    R3 2744  11.635  15.135   7.589  0.0058  0.0243 -0.0237
  307CHOL    R4 2745  11.454  15.103   7.359  0.0303 -0.2154 -0.0048
  307CHOL    R5 2746  11.634  14.987   7.401 -0.0273 -0.2362  0.1787
  307CHOL    C1 2747  11.725  15.131   7.059  0.0875 -0.7448 -0.0141
  307CHOL    C2 2748  11.671  15.441   6.731 -0.0457  0.0349 -0.0345
  308XCA    COO 2749   6.602   3.049   4.456 -0.1213 -0.1034 -0.0732
  308XCA     C1 2750   6.901   3.020   4.852  0.1921 -0.0143 -0.1480
  308XCA     C2 2751   7.159   2.957   5.124 -0.1544  0.0657 -0.1233
  308XCA     C3 2752   7.027   2.874   5.477 -0.3289  0.1484  0.1110
  308XCA     C4 2753   7.143   2.870   5.937 -0.5362  0.2673  0.0146
  308XCA     C5 2754   7.109   2.768   6.276 -0.1175  0.0381  0.1616
  308XCA     C6 2755   6.860   2.469   6.356  0.4200  0.1916  0.0330
  309CHOL   ROH 2756   9.003  11.512   5.088  0.0596  0.3027 -0.2002
  309CHOL    R1 2757   9.081  11.706   5.279  0.0185  0.2566 -0.1341
  309CHOL    R2 2758   8.910  11.904   5.368 -0.0591  0.1330  0.0118
  309CHOL    R3 2759   8.976  11.805   5.612  0.0658  0.0476 -0.0566
  309CHOL    R4 2760   8.865  12.071   5.667 -0.2059 -0.1033  0.1234
  309CHOL    R5 2761   9.058  11.995   5.733 -0.1221  0.0569  0.0555
  309CHOL    C1 2762   8.901  12.076   6.070 -0.1742 -0.3210  0.1242
  309CHOL    C2 2763   8.657  12.348   6.067 -0.1889 -0.0337  0.1792
  310CHOL   ROH 2764   0.718   7.251   9.036 -0.0005 -0.2144 -0.0646
  310CHOL    R1 2765   0.732   7.419   8.809 -0.1776 -0.0692  0.0279
  310CHOL    R2 2766   0.910   7.375   8.602  0.0279  0.3565  0.0984
  310CHOL    R3 2767   0.685   7.382   8.450  0.0897  0.0192 -0.0173
  310CHOL    R4 2768   0.906   7.362   8.257  0.2030  0.1738  0.1015
  310CHOL    R5 2769   0.748   7.512   8.258  0.0282 -0.0071 -0.0523
  310CHOL    C1 2770   0.692   7.361   7.913  0.3630 -0.2492 -0.0052
  310CHOL    C2 2771   0.748   7.587   7.538 -0.3651 -0.1223 -0.0787
  311XCA    COO 2772  15.413  12.458   4.487  0.0041  0.1961  0.1057
  311XCA     C1 2773  15.528  12.346   4.879  0.0599 -0.0691 -0.0046
  311XCA     C2 2774  15.634  12.369   5.325  0.0204  0.1249  0.0715
  311XCA     C3 2775  15.924  12.515   5.547  0.0715 -0.1408 -0.1239
  311XCA     C4 2776  15.996  12.622   5.972 -0.1871  0.0807 -0.0505
  311XCA     C5 2777  15.954  12.547   6.478  0.1481 -0.2683 -0.0156
  311XCA     C6 2778  15.739  12.511   6.890 -0.0710  0.3257 -0.0555
  312PNCE   AM1 2779  11.337   4.411   8.388  0.0618  0.0373  0.3275
  312PNCE   AM2 2780  11.535   4.146   8.212  0.0637  0.2471  0.1924
  312PNCE   T1A 2781  11.254   4.704   7.973  0.0788 -0.1390  0.1212
  312PNCE   C2A 2782  11.411   4.943   7.628  0.1785 -0.0720  0.1256
  312PNCE   C3A 2783  11.653   5.257   7.468  0.1206  0.2034 -0.1375
  312PNCE   C1B 2784  11.645   4.388   7.864  0.2096 -0.0474  0.0017
  312PNCE   C2B 2785  11.852   4.616   7.525 -0.1878  0.1906 -0.3237
  312PNCE   C3B 2786  11.966   4.856   7.262  0.2002  0.0500 -0.2835
  312PNCE   D4B 2787  11.919   5.271   7.060 -0.4833  0.1744  0.0083
  312PNCE   C5B 2788  11.871   5.628   7.313 -0.2058  0.0037  0.0107
  312PNCE   C6B 2789  11.748   5.640   7.756 -0.0469 -0.3319 -0.1858
  313PNCE   AM1 2790  10.330  14.614   8.332  0.3297 -0.0932 -0.2047
  313PNCE   AM2 2791  10.323  14.804   8.076 -0.0082 -0.0818 -0.1144
  313PNCE   T1A 2792   9.811  14.645   8.129 -0.2547  0.2088 -0.1274
  313PNCE   C2A 2793   9.431  14.549   8.053  0.3321 -0.0069 -0.4246
  313PNCE   C3A 2794   9.026  14.657   7.806 -0.2608  0.2065  0.0971
  313PNCE   C1B 2795  10.283  14.562   7.617 -0.0679 -0.1089  0.0362
  313PNCE   C2B 2796  10.228  14.190   7.413  0.1651  0.1784  0.1487
  313PNCE   C3B 2797  10.109  14.005   6.963 -0.0037  0.1251 -0.0742
  313PNCE   D4B 2798   9.947  13.760   6.690 -0.1852 -0.2194 -0.1637
  313PNCE   C5B 2799   9.808  13.893   6.224 -0.1301 -0.0694  0.0066
  313PNCE   C6B 2800   9.651  13.589   5.973 -0.2072 -0.0400 -0.0582
  314PNCE   AM1 2801  10.912   2.361   8.758  0.0224 -0.3619 -0.1293
  314PNCE   AM2 2802  10.557   2.381   8.793 -0.0831 -0.4343  0.1258
  314PNCE   T1A 2803  11.091   2.180   8.375 -0.3158  0.0349  0.1531
  314PNCE   C2A 2804  10.902   1.975   7.973 -0.1457  0.1416  0.2986
  314PNCE   C3A 2805  10.510   1.929   7.632  0.0878  0.0976 -0.2782
  314PNCE   C1B 2806  10.450   2.079   8.498  0.1259  0.1608  0.0694
  314PNCE   C2B 2807  10.359   1.848   8.182 -0.1854 -0.2220 -0.1087
  314PNCE   C3B 2808   9.943   1.723   8.157  0.3227  0.0118  0.1060
  314PNCE   D4B 2809   9.604   1.460   7.976 -0.1531  0.2339  0.3566
  314PNCE   C5B 2810   9.496   1.353   8.460  0.2790 -0.0171 -0.2647
  314PNCE   C6B 2811   9.177   1.365   8.744  0.2215  0.4044 -0.1414
  315XCA    COO 2812   4.607  14.134   5.084 -0.1359 -0.0062 -0.1478
  315XCA     C1 2813   4.630  14.033   5.613 -0.1196 -0.0566  0.1655
  315XCA     C2 2814   4.567  13.756   5.956 -0.0626 -0.0465 -0.1713
  315XCA     C3 2815   4.222  13.882   6.288  0.1142  0.0178 -0.3644
  315XCA     C4 2816   3.768  13.871   6.271 -0.0284 -0.5437 -0.3659
  315XCA     C5 2817   3.453  14.214   6.469  0.0485  0.3156  0.4527
  315XCA     C6 2818   3.438  14.590   6.439 -0.3804  0.1825  0.0834
  316PNCE   AM1 2819  12.216  13.859   7.833 -0.2872  0.0405  0.2078
  316PNCE   AM2 2820  12.094  13.558   7.910  0.0024  0.1646 -0.2101
  316PNCE   T1A 2821  12.435  14.145   7.592  0.1001  0.1533 -0.3987
  316PNCE   C2A 2822  12.758  14.230   7.257  0.1925 -0.1680  0.2428
  316PNCE   C3A 2823  12.949  14.105   6.860 -0.1002 -0.0218 -0.2290
  316PNCE   C1B 2824  11.893  13.741   7.466 -0.1373 -0.0598  0.0792
  316PNCE   C2B 2825  11.848  13.541   7.126 -0.3064  0.0512 -0.2151
  316PNCE   C3B 2826  11.609  13.400   6.767 -0.0592  0.2359  0.5146
  316PNCE   D4B 2827  11.402  13.243   6.376  0.0197  0.3995 -0.3061
  316PNCE   C5B 2828  11.663  13.303   5.999 -0.0503 -0.0501 -0.3813
  316PNCE   C6B 2829  11.795  13.524   5.606  0.1676 -0.0003  0.0406
  317XCA    COO 2830   3.822  15.535   8.508 -0.1629 -0.3520 -0.0565
  317XCA     C1 2831   3.648  15.730   8.076  0.0629  0.2208  0.1184
  317XCA     C2 2832   3.612  15.969   7.716  0.2291 -0.0023 -0.1584
  317XCA     C3 2833   3.775  16.024   7.300  0.1950  0.1515  0.3210
  317XCA     C4 2834   3.747  15.769   7.014 -0.0651  0.0657 -0.0733
  317XCA     C5 2835   4.034  15.405   6.901 -0.0306 -0.0455  0.2884
  317XCA     C6 2836   4.247  15.136   6.646 -0.2090  0.1201 -0.1474
  318PNCE   AM1 2837   5.660  14.406   8.586 -0.2787  0.2975 -0.0369
  318PNCE   AM2 2838   6.006  14.215   8.675  0.2350 -0.1016  0.3567
  318PNCE   T1A 2839   5.756  14.069   8.271  0.1858 -0.0365 -0.2545
  318PNCE   C2A 2840   5.572  13.877   7.867 -0.1107  0.0234 -0.0762
  318PNCE   C3A 2841   5.519  13.838   7.454 -0.0816 -0.1109 -0.3710
  318PNCE   C1B 2842   6.088  14.485   8.210  0.1557 -0.0118  0.1535
  318PNCE   C2B 2843   6.048  14.611   7.835 -0.1379 -0.0291 -0.0684
  318PNCE   C3B 2844   6.039  14.752   7.523 -0.0096 -0.0120 -0.1686
  318PNCE   D4B 2845   5.670  15.019   7.342  0.1385 -0.2105 -0.3731
  318PNCE   C5B 2846   5.689  15.450   7.235  0.1277 -0.2737 -0.2560
  318PNCE   C6B 2847   6.089  15.752   7.321 -0.0690  0.1058 -0.2394
  319PNCE   AM1 2848   5.376   7.705   9.312 -0.1299  0.1504 -0.0814
  319PNCE   AM2 2849   4.979   7.539   9.431  0.0263 -0.1547  0.0397
  319PNCE   T1A 2850   5.577   7.887   8.942 -0.2716  0.1412 -0.1290
  319PNCE   C2A 2851   5.723   7.844   8.479 -0.0670 -0.2481  0.1995
  319PNCE   C3A 2852   5.673   7.591   8.057 -0.0072  0.1636 -0.1278
  319PNCE   C1B 2853   4.989   7.305   9.017 -0.1378  0.1891 -0.2304
  319PNCE   C2B 2854   4.806   7.340   8.651 -0.4023  0.0884 -0.0398
  319PNCE   C3B 2855   4.754   7.377   8.175  0.0710  0.1342 -0.1817
  319PNCE   D4B 2856   4.456   7.379   7.810 -0.0429  0.2814  0.1771
  319PNCE   C5B 2857   4.305   7.785   7.670  0.2498  0.0714 -0.0537
  319PNCE   C6B 2858   4.457   8.070   7.463 -0.0821 -0.0216 -0.0724
  320CHOL   ROH 2859   9.149  14.786   4.811 -0.0946  0.4781  0.1348
  320CHOL    R1 2860   9.152  14.716   5.085 -0.0152  0.0896  0.0413
  320CHOL    R2 2861   9.075  14.891   5.285  0.2423 -0.1139  0.3310
  320CHOL    R3 2862   8.909  14.688   5.355  0.0962 -0.0664  0.1276
  320CHOL    R4 2863   8.957  14.835   5.605  0.1218 -0.2875  0.2572
  320CHOL    R5 2864   8.986  14.621   5.572 -0.0031 -0.2820  0.0992
  320CHOL    C1 2865   8.732  14.612   5.857 -0.0856 -0.3439  0.0233
  320CHOL    C2 2866   8.625  14.882   6.158  0.0683  0.2952  0.0834
  321CHOL   ROH 2867   5.819   8.873   5.773 -0.0658 -0.0613 -0.0994
  321CHOL    R1 2868   5.734   8.884   6.043 -0.3274 -0.0549 -0.1793
  321CHOL    R2 2869   5.884   9.006   6.241 -0.2657 -0.4918  0.0550
  321CHOL    R3 2870   5.654   9.144   6.284 -0.0296 -0.0265 -0.1058
  321CHOL    R4 2871   5.805   9.171   6.534 -0.2228 -0.5100  0.0769
  321CHOL    R5 2872   5.600   9.099   6.514 -0.3658 -0.0663 -0.1863
  321CHOL    C1 2873   5.543   9.396   6.746  0.0238 -0.0837 -0.0613
  321CHOL    C2 2874   5.354   9.577   6.946  0.2063  0.4102 -0.2810
  322CHOL   ROH 2875   5.626   5.935   5.105  0.2515  0.2374  0.0928
  322CHOL    R1 2876   5.618   5.774   5.338  0.1300  0.0348 -0.0501
  322CHOL    R2 2877   5.810   5.788   5.535 -0.0225 -0.0740  0.0998
  322CHOL    R3 2878   5.595   5.828   5.697 -0.1507 -0.2848 -0.0124
  322CHOL    R4 2879   5.813   5.754   5.879 -0.0164  0.4002  0.1544
  322CHOL    R5 2880   5.616   5.660   5.866  0.1624 -0.0257  0.2268
  322CHOL    C1 2881   5.613   5.771   6.231 -0.1333  0.4784  0.0809
  322CHOL    C2 2882   5.564   5.876   6.543 -0.1040 -0.0893  0.1797
  323XCA    COO 2883  12.421   9.470   8.562  0.3528 -0.0804  0.3418
  323XCA     C1 2884  12.293   9.168   8.217  0.1789  0.0872 -0.0661
  323XCA     C2 2885  12.187   8.987   7.823 -0.0362 -0.2502  0.2817
  323XCA     C3 2886  11.973   8.648   7.610  0.0225 -0.0689  0.4448
  323XCA     C4 2887  11.967   8.156   7.772 -0.1576  0.0907 -0.3348
  323XCA     C5 2888  12.158   7.767   7.801 -0.0088  0.0026 -0.1418
  323XCA     C6 2889  12.382   7.487   7.891 -0.1265 -0.0535  0.3390
  324XCA    COO 2890  10.163  12.728   4.547  0.2400 -0.3166 -0.0037
  324XCA     C1 2891  10.186  12.801   5.034  0.0275  0.2069 -0.0838
  324XCA     C2 2892  10.346  12.906   5.455 -0.1314 -0.1118 -0.1898
  324XCA     C3 2893  10.428  13.024   5.874 -0.2030  0.0892  0.0081
  324XCA     C4 2894  10.517  13.105   6.236  0.4682  0.0427  0.0204
  324XCA     C5 2895  10.779  13.422   6.384  0.0374  0.0778 -0.3408
  324XCA     C6 2896  11.051  13.387   6.701 -0.0806 -0.1636  0.1497
  325CHOL   ROH 2897   3.996   2.344   6.478  0.1287  0.1607 -0.0374
  325CHOL    R1 2898   3.770   2.382   6.313  0.1107  0.0701 -0.0306
  325CHOL    R2 2899   3.790   2.451   6.047  0.0801 -0.1000 -0.0673
  325CHOL    R3 2900   3.634   2.231   6.011  0.0546 -0.1092  0.0794
  325CHOL    R4 2901   3.575   2.403   5.781  0.0918 -0.2435 -0.0541
  325CHOL    R5 2902   3.429   2.318   5.920  0.0670 -0.1331  0.0067
  325CHOL    C1 2903   3.303   2.170   5.592  0.0747 -0.3356  0.0913
  325CHOL    C2 2904   3.445   2.504   5.347 -0.2900  0.1668 -0.0843
  326PNCE   AM1 2905  12.131   9.792   8.264 -0.3347  0.2444  0.1554
  326PNCE   AM2 2906  11.768   9.674   8.260 -0.0717 -0.0709  0.0312
  326PNCE   T1A 2907  12.352   9.632   7.853 -0.0188  0.0610 -0.2701
  326PNCE   C2A 2908  12.739   9.648   7.684 -0.3979 -0.3385 -0.1195
  326PNCE   C3A 2909  13.194   9.688   7.852 -0.0878 -0.1253  0.0844
  326PNCE   C1B 2910  11.894   9.460   7.849 -0.0021 -0.2166 -0.1352
  326PNCE   C2B 2911  11.968   9.247   7.485  0.0616 -0.0918  0.0178
  326PNCE   C3B 2912  12.134   8.978   7.194  0.1219  0.2655 -0.1663
  326PNCE   D4B 2913  11.997   8.989   6.808 -0.1902 -0.0302 -0.0119
  326PNCE   C5B 2914  11.708   9.232   6.644  0.0118  0.2947 -0.0595
  326PNCE   C6B 2915  11.596   9.514   6.353 -0.1545  0.2018 -0.4083
  327PNCE   AM1 2916   7.582   0.321   8.060 -0.0141  0.3685  0.0429
  327PNCE   AM2 2917   7.800  -0.028   8.192  0.1283 -0.0136 -0.1205
  327PNCE   T1A 2918   7.452   0.190   7.613 -0.2137  0.0096 -0.2441
  327PNCE   C2A 2919   7.597   0.075   7.180  0.3639 -0.1861  0.1390
  327PNCE   C3A 2920   7.937  -0.139   7.034  0.0999  0.1639 -0.2992
  327PNCE   C1B 2921   7.358  -0.199   7.947 -0.3208  0.3198  0.1032
  327PNCE   C2B 2922   6.928  -0.176   7.784 -0.3162  0.0102  0.3513
  327PNCE   C3B 2923   6.476  -0.235   7.726 -0.1594  0.0450  0.0833
  327PNCE   D4B 2924   6.263   0.123   7.884 -0.0895  0.3314 -0.3121
  327PNCE   C5B 2925   5.865   0.087   7.684 -0.3080 -0.0213  0.1115
  327PNCE   C6B 2926   5.499  -0.332   7.724 -0.1151  0.0611 -0.0851
  328CHOL   ROH 2927  10.453   0.716   8.224  0.2104 -0.0296  0.0510
  328CHOL    R1 2928  10.411   0.716   7.944  0.3289 -0.1009  0.0339
  328CHOL    R2 2929  10.332   0.941   7.806  0.0368 -0.2252  0.0022
  328CHOL    R3 2930  10.551   0.887   7.655  0.1887  0.1145  0.0890
  328CHOL    R4 2931  10.375   1.041   7.478  0.0403 -0.0983  0.0394
  328CHOL    R5 2932  10.464   0.846   7.436  0.3404  0.0286  0.0401
  328CHOL    C1 2933  10.607   1.048   7.146  0.1850  0.2946  0.1425
  328CHOL    C2 2934  10.638   1.266   6.901  0.0652  0.1817 -0.0470
  329CHOL   ROH 2935   0.682   2.778   4.938 -0.1301  0.0696 -0.1700
  329CHOL    R1 2936   0.575   2.872   5.183 -0.2358 -0.0272 -0.1787
  329CHOL    R2 2937   0.674   2.792   5.429 -0.2692 -0.0381 -0.1709
  329CHOL    R3 2938   0.697   3.060   5.470 -0.3928 -0.0364 -0.1041
  329CHOL    R4 2939   0.675   2.944   5.739  0.0471 -0.1578 -0.1094
  329CHOL    R5 2940   0.552   3.104   5.656 -0.1769 -0.2051  0.1133
  329CHOL    C1 2941   0.698   3.284   5.959  0.1152 -0.2259 -0.0108
  329CHOL    C2 2942   0.870   3.462   6.249  0.0809  0.0828 -0.1076
  330PNCE   AM1 2943   3.149   7.365   9.679 -0.0196  0.0122 -0.1070
  330PNCE   AM2 2944   3.094   7.657   9.881  0.4372 -0.2993 -0.0819
  330PNCE   T1A 2945   3.041   7.325   9.308  0.1419  0.1547  0.1968
  330PNCE   C2A 2946   2.980   7.454   8.889 -0.0990 -0.1594 -0.3676
  330PNCE   C3A 2947   2.899   7.478   8.375  0.1594 -0.0816 -0.1623
  330PNCE   C1B 2948   2.907   7.847   9.465 -0.2649  0.2550 -0.1855
  330PNCE   C2B 2949   2.542   8.125   9.218 -0.1088  0.0413  0.0142
  330PNCE   C3B 2950   2.588   8.255   8.771  0.0453 -0.2750  0.1082
  330PNCE   D4B 2951   2.703   8.245   8.394 -0.0516 -0.0045  0.3035
  330PNCE   C5B 2952   2.829   8.047   8.142  0.0832 -0.2000  0.0367
  330PNCE   C6B 2953   2.956   7.709   7.887 -0.0072  0.0286  0.1606
  331PNCE   AM1 2954   3.524   9.100   9.556  0.0834  0.1254 -0.1929
  331PNCE   AM2 2955   3.687   9.298   9.210 -0.0839 -0.0975 -0.0508
  331PNCE   T1A 2956   3.366   8.829   9.320  0.2228 -0.0351  0.1823
  331PNCE   C2A 2957   3.332   8.568   8.916 -0.0824  0.1147 -0.1986
  331PNCE   C3A 2958   3.115   8.444   8.572 -0.0973  0.0336 -0.0729
  331PNCE   C1B 2959   3.820   9.371   8.783  0.0757 -0.1767  0.1083
  331PNCE   C2B 2960   3.650   9.182   8.379  0.0795  0.2285  0.0329
  331PNCE   C3B 2961   3.551   8.983   8.080  0.0907 -0.0134 -0.0267
  331PNCE   D4B 2962   3.699   8.675   7.880 -0.4215  0.1016  0.0671
  331PNCE   C5B 2963   3.836   8.689   7.495 -0.1369  0.0032  0.1337
  331PNCE   C6B 2964   3.686   8.324   7.217 -0.2326  0.1569  0.0421
  332PNCE   AM1 2965   0.813   3.150   8.526 -0.1080 -0.1338 -0.1919
  332PNCE   AM2 2966   0.999   3.259   8.391 -0.0226 -0.4495  0.0063
  332PNCE   T1A 2967   0.493   2.952   8.227  0.0190  0.2510 -0.1195
  332PNCE   C2A 2968   0.126   2.782   7.944 -0.0304 -0.1623  0.1431
  332PNCE   C3A 2969  -0.195   2.611   7.741  0.0052 -0.1698 -0.3996
  332PNCE   C1B 2970   0.862   3.628   8.168  0.2328  0.0884  0.3334
  332PNCE   C2B 2971   0.903   4.099   8.023 -0.1421  0.2507 -0.4198
  332PNCE   C3B 2972   1.206   4.112   7.618  0.0079 -0.2096 -0.0727
  332PNCE   D4B 2973   1.442   4.050   7.289 -0.2304  0.1462  0.0193
  332PNCE   C5B 2974   1.880   4.014   7.373 -0.0898  0.1235 -0.0470
  332PNCE   C6B 2975   2.291   3.705   7.354 -0.0601 -0.1747 -0.0633
  333PNCE   AM1 2976   3.628   4.921   9.201  0.2397 -0.1204  0.2721
  333PNCE   AM2 2977   3.531   5.111   9.404 -0.4210 -0.2949 -0.0433
  333PNCE   T1A 2978   3.823   4.826   8.778 -0.0189  0.0796  0.4120
  333PNCE   C2A 2979   4.064   4.744   8.354 -0.1124 -0.1907 -0.0377
  333PNCE   C3A 2980   4.091   4.529   7.970 -0.1209  0.1933  0.0248
  333PNCE   C1B 2981   3.510   5.514   9.139 -0.1692 -0.2151 -0.1091
  333PNCE   C2B 2982   3.790   5.720   8.892  0.1392  0.1465 -0.2930
  333PNCE   C3B 2983   3.980   5.582   8.505  0.1409  0.0071 -0.2966
  333PNCE   D4B 2984   3.795   5.724   8.084  0.0235 -0.4051  0.1499
  333PNCE   C5B 2985   3.665   5.286   7.997  0.5692 -0.0133 -0.2727
  333PNCE   C6B 2986   3.841   4.917   7.894  0.1840 -0.0351 -0.1525
  334PNCE   AM1 2987   9.382  13.389   8.615  0.0092  0.0912 -0.2238
  334PNCE   AM2 2988   9.558  13.197   8.469 -0.0756 -0.3048 -0.0946
  334PNCE   T1A 2989   9.075  13.493   8.256 -0.0443 -0.0886  0.2355
  334PNCE   C2A 2990   8.740  13.728   7.865 -0.0772 -0.0312  0.1958
  334PNCE   C3A 2991   8.864  13.699   7.420  0.3047 -0.2279  0.2365
  334PNCE   C1B 2992   9.612  13.469   8.203 -0.3033 -0.0763  0.0413
  334PNCE   C2B 2993   9.421  13.521   7.727 -0.0507  0.7064  0.0556
  334PNCE   C3B 2994   9.362  13.539   7.304  0.1230 -0.2421  0.2488
  334PNCE   D4B 2995   9.130  13.690   6.946  0.2995  0.2759  0.0600
  334PNCE   C5B 2996   9.005  13.457   6.684 -0.0742 -0.1200 -0.4221
  334PNCE   C6B 2997   8.620  13.294   6.649 -0.1706 -0.3616  0.0954
  335PNCE   AM1 2998   0.358   1.161   8.603  0.0728  0.2225  0.2183
  335PNCE   AM2 2999   0.207   1.033   8.428  0.0470  0.1669 -0.4093
  335PNCE   T1A 3000   0.438   1.524   8.424 -0.0086 -0.1350 -0.6205
  335PNCE   C2A 3001   0.500   1.854   8.136  0.4064 -0.1062 -0.2003
  335PNCE   C3A 3002   0.668   2.128   7.780  0.1424  0.1089 -0.0608
  335PNCE   C1B 3003   0.396   1.282   7.993 -0.0618 -0.1291  0.2631
  335PNCE   C2B 3004   0.269   1.458   7.580  0.2510  0.1511  0.2237
  335PNCE   C3B 3005   0.397   1.672   7.109 -0.0696 -0.0036 -0.2197
  335PNCE   D4B 3006  -0.001   1.980   7.061 -0.3249  0.2077 -0.1483
  335PNCE   C5B 3007  -0.358   1.758   7.057 -0.3526 -0.0118  0.2531
  335PNCE   C6B 3008  -0.669   1.504   7.070 -0.0286 -0.2033  0.0266
  336CHOL   ROH 3009  15.709  11.296   6.181 -0.0562  0.0519 -0.2802
  336CHOL    R1 3010  15.974  11.241   6.098  0.0345  0.1514 -0.0613
  336CHOL    R2 3011  16.194  11.302   6.254 -0.1315  0.0088  0.2310
  336CHOL    R3 3012  16.251  11.038   6.218 -0.0772  0.0457  0.0242
  336CHOL    R4 3013  16.513  11.171   6.226 -0.0965  0.0902  0.2408
  336CHOL    R5 3014  16.439  11.038   6.070 -0.0169  0.2098  0.0922
  336CHOL    C1 3015  16.752  10.848   6.177 -0.0251  0.1722  0.0524
  336CHOL    C2 3016  17.013  10.583   6.212 -0.2145  0.0991 -0.2335
  337XCA    COO 3017   8.710  15.511   4.357  0.1865  0.0797  0.0890
  337XCA     C1 3018   8.692  15.622   4.825 -0.1636  0.0065  0.2495
  337XCA     C2 3019   8.861  15.731   5.281  0.0157 -0.1212 -0.0828
  337XCA     C3 3020   8.862  15.830   5.609 -0.1253 -0.3270  0.2678
  337XCA     C4 3021   8.772  15.834   6.076  0.0562  0.2762 -0.2389
  337XCA     C5 3022   8.647  16.241   6.277 -0.0976 -0.0803  0.4109
  337XCA     C6 3023   8.390  16.585   6.200  0.0856 -0.1493 -0.4359
  338PNCE   AM1 3024  14.574   3.206   8.747 -0.1984  0.0859 -0.2083
  338PNCE   AM2 3025  14.622   2.850   8.683  0.1249 -0.2258 -0.2511
  338PNCE   T1A 3026  14.556   3.377   8.314 -0.2157  0.1019 -0.1551
  338PNCE   C2A 3027  14.451   3.433   7.916  0.1348 -0.1379 -0.1145
  338PNCE   C3A 3028  14.394   3.250   7.576 -0.1405  0.1359  0.1720
  338PNCE   C1B 3029  14.532   2.854   8.300 -0.0255  0.1883 -0.1164
  338PNCE   C2B 3030  14.851   2.989   8.048  0.1113 -0.0448 -0.0306
  338PNCE   C3B 3031  14.798   3.027   7.697 -0.2119 -0.0984 -0.1133
  338PNCE   D4B 3032  14.801   3.024   7.400 -0.0357 -0.1511  0.2440
  338PNCE   C5B 3033  14.691   2.928   7.023  0.0630 -0.2800 -0.1971
  338PNCE   C6B 3034  14.718   2.803   6.590 -0.1355 -0.0019 -0.2073
  339CHOL   ROH 3035   0.385   8.632   5.918  0.2754 -0.0185  0.0400
  339CHOL    R1 3036   0.243   8.704   6.153  0.1628 -0.0446 -0.0221
  339CHOL    R2 3037  -0.018   8.627   6.198  0.1162  0.0287 -0.2029
  339CHOL    R3 3038   0.085   8.529   6.430 -0.0586 -0.0759 -0.1634
  339CHOL    R4 3039  -0.181   8.627   6.503 -0.1497 -0.1746 -0.3373
  339CHOL    R5 3040   0.008   8.681   6.598 -0.2378 -0.1812 -0.1437
  339CHOL    C1 3041  -0.178   8.537   6.898 -0.4685 -0.3910 -0.3784
  339CHOL    C2 3042  -0.385   8.235   7.133 -0.0515  0.2926 -0.0557
  340PNCE   AM1 3043  12.452   8.707   8.515 -0.0333  0.0303  0.1316
  340PNCE   AM2 3044  12.018   8.618   8.550  0.0370  0.1893 -0.1832
  340PNCE   T1A 3045  12.362   8.244   8.476  0.3078  0.0451  0.0153
  340PNCE   C2A 3046  12.447   7.863   8.241  0.0801  0.2577 -0.0295
  340PNCE   C3A 3047  12.785   7.541   8.159 -0.0715 -0.0607 -0.0637
  340PNCE   C1B 3048  12.192   8.558   8.119  0.0203  0.3126  0.0904
  340PNCE   C2B 3049  12.424   8.264   7.841  0.1115 -0.2296 -0.2282
  340PNCE   C3B 3050  12.315   8.171   7.452 -0.3399  0.1273 -0.1500
  340PNCE   D4B 3051  12.340   7.788   7.129  0.0052 -0.1956  0.1484
  340PNCE   C5B 3052  12.717   7.773   6.963 -0.0184  0.1411  0.1195
  340PNCE   C6B 3053  13.088   7.861   6.690 -0.3606  0.0104 -0.0519
  341PNCE   AM1 3054   4.115  14.734   8.808 -0.2781  0.1375  0.0604
  341PNCE   AM2 3055   4.397  14.633   8.753 -0.0268  0.0083 -0.0805
  341PNCE   T1A 3056   4.014  14.629   8.426 -0.0659 -0.1678  0.2135
  341PNCE   C2A 3057   3.818  14.597   8.006 -0.4987  0.0568 -0.0465
  341PNCE   C3A 3058   4.031  14.704   7.590 -0.0974  0.1644  0.4034
  341PNCE   C1B 3059   4.675  14.350   8.486 -0.1610  0.0762 -0.5089
  341PNCE   C2B 3060   5.224  14.232   8.260  0.0003 -0.0637  0.2429
  341PNCE   C3B 3061   5.600  14.399   7.936 -0.2065  0.0468 -0.1743
  341PNCE   D4B 3062   5.472  14.701   7.661 -0.1038 -0.2463  0.2981
  341PNCE   C5B 3063   5.317  14.755   7.269 -0.1871  0.3317  0.3122
  341PNCE   C6B 3064   5.186  14.487   6.809  0.1911  0.0216  0.0879
  342PNCE   AM1 3065   4.504   8.459   9.462  0.0186 -0.2046  0.2163
  342PNCE   AM2 3066   4.282   8.186   9.457  0.2524  0.3173 -0.2880
  342PNCE   T1A 3067   4.480   8.257   9.036  0.1744 -0.3105  0.1253
  342PNCE   C2A 3068   4.434   8.214   8.588 -0.1515 -0.0599  0.2756
  342PNCE   C3A 3069   4.279   7.965   8.304  0.0418 -0.2491  0.1609
  342PNCE   C1B 3070   4.051   8.007   9.139 -0.0514  0.3770  0.0459
  342PNCE   C2B 3071   3.981   7.861   8.774 -0.0763  0.0924  0.1014
  342PNCE   C3B 3072   3.877   7.745   8.372 -0.1121  0.2185 -0.0432
  342PNCE   D4B 3073   3.957   7.419   7.999 -0.1392 -0.1497 -0.3337
  342PNCE   C5B 3074   4.075   7.079   7.838  0.2270 -0.0739  0.1055
  342PNCE   C6B 3075   4.396   6.883   7.530 -0.0776  0.0048 -0.1265
  343CHOL   ROH 3076  14.912   4.225   7.470  0.0835  0.0041  0.2958
  343CHOL    R1 3077  14.938   4.065   7.237  0.0393  0.0952  0.2272
  343CHOL    R2 3078  15.159   3.906   7.190  0.0484  0.1410  0.1037
  343CHOL    R3 3079  14.973   3.711   7.163  0.0659  0.1275  0.0842
  343CHOL    R4 3080  15.198   3.620   7.000  0.0831  0.1487  0.0997
  343CHOL    R5 3081  14.991   3.640   6.935  0.0877  0.1343  0.0850
  343CHOL    C1 3082  15.045   3.269   6.865  0.1197  0.1405  0.0790
  343CHOL    C2 3083  15.221   2.955   6.644 -0.2021  0.2621 -0.0650
  344CHOL   ROH 3084  15.861   2.246   9.136 -0.1219 -0.1407 -0.0277
  344CHOL    R1 3085  15.833   2.302   8.860 -0.2151  0.0948  0.0274
  344CHOL    R2 3086  15.718   2.124   8.683  0.1039  0.0657 -0.1567
  344CHOL    R3 3087  15.558   2.335   8.624 -0.2759 -0.1503  0.0610
  344CHOL    R4 3088  15.591   2.194   8.369  0.1184  0.2478 -0.1230
  344CHOL    R5 3089  15.629   2.405   8.406 -0.2999  0.2830  0.1830
  344CHOL    C1 3090  15.366   2.433   8.132 -0.2296  0.1510  0.1011
  344CHOL    C2 3091  15.407   2.833   8.107 -0.0877  0.2818  0.4722
  345PNCE   AM1 3092   5.332  10.983   9.133  0.0589 -0.4000 -0.1232
  345PNCE   AM2 3093   5.664  10.914   9.277 -0.1293 -0.0826  0.1382
  345PNCE   T1A 3094   5.344  11.335   8.707 -0.2970 -0.0956 -0.4202
  345PNCE   C2A 3095   5.505  11.362   8.357  0.2781  0.2329 -0.0784
  345PNCE   C3A 3096   5.684  11.627   8.023 -0.1007  0.2750 -0.2309
  345PNCE   C1B 3097   5.642  10.794   8.826  0.0900  0.0295 -0.2053
  345PNCE   C2B 3098   5.733  10.982   8.512  0.0546  0.2651 -0.0554
  345PNCE   C3B 3099   6.084  11.254   8.339 -0.2605 -0.1306  0.3770
  345PNCE   D4B 3100   6.460  11.545   8.467  0.1499 -0.2007 -0.3421
  345PNCE   C5B 3101   6.630  11.783   8.196  0.3715  0.0877  0.0046
  345PNCE   C6B 3102   6.975  11.958   7.892  0.0544 -0.0914 -0.0529
  346PNCE   AM1 3103  14.826   9.192   8.949  0.0861  0.1997  0.0961
  346PNCE   AM2 3104  14.833   8.847   9.091 -0.1065 -0.2053 -0.2230
  346PNCE   T1A 3105  14.853   9.076   8.571 -0.2660  0.1168  0.1501
  346PNCE   C2A 3106  15.111   8.912   8.215 -0.0613  0.1250 -0.4676
  346PNCE   C3A 3107  15.411   8.636   8.087 -0.1694 -0.0783  0.0280
  346PNCE   C1B 3108  14.714   8.587   8.647 -0.0935 -0.0079  0.0817
  346PNCE   C2B 3109  14.816   8.526   8.222 -0.2230 -0.1652  0.0372
  346PNCE   C3B 3110  14.924   8.627   7.875  0.2727 -0.1565  0.2941
  346PNCE   D4B 3111  15.194   8.906   7.671 -0.3773  0.0307  0.0364
  346PNCE   C5B 3112  15.287   9.147   7.443  0.0905 -0.2543 -0.0325
  346PNCE   C6B 3113  15.138   9.486   7.268 -0.2498  0.2922 -0.0998
  347PNCE   AM1 3114   6.853  10.666   9.133 -0.0702  0.2807  0.0235
  347PNCE   AM2 3115   6.585  10.733   8.927  0.0209 -0.0069 -0.1110
  347PNCE   T1A 3116   6.931  10.303   8.852  0.2601 -0.1015  0.1569
  347PNCE   C2A 3117   7.011  10.123   8.413  0.0054  0.0158  0.1072
  347PNCE   C3A 3118   7.410   9.932   8.258  0.3630  0.0910  0.1425
  347PNCE   C1B 3119   6.544  10.322   8.521  0.0784 -0.0845 -0.2667
  347PNCE   C2B 3120   6.284   9.992   8.535  0.2285  0.1127  0.2857
  347PNCE   C3B 3121   6.436   9.507   8.559  0.1611  0.1918  0.1114
  347PNCE   D4B 3122   6.288   9.095   8.572  0.1291 -0.3319 -0.1275
  347PNCE   C5B 3123   6.237   9.040   8.110  0.0975 -0.3070  0.1856
  347PNCE   C6B 3124   6.447   9.224   7.756  0.1672  0.1836 -0.1323
  348XCA    COO 3125  15.353   1.801   8.628 -0.4827 -0.3833  0.5814
  348XCA     C1 3126  15.338   1.699   8.200 -0.0345 -0.2339 -0.1063
  348XCA     C2 3127  15.190   1.422   7.832  0.3274  0.2332  0.1659
  348XCA     C3 3128  14.988   1.292   7.407 -0.3172 -0.0450 -0.2594
  348XCA     C4 3129  14.855   1.037   7.070  0.2173 -0.1749  0.0501
  348XCA     C5 3130  14.626   0.974   6.650  0.2600  0.1605  0.2006
  348XCA     C6 3131  14.429   1.244   6.327  0.0873  0.0242  0.1773
  349XCA    COO 3132   0.286   3.180   8.585  0.1087  0.2681  0.0490
  349XCA     C1 3133   0.393   3.416   8.241 -0.0915 -0.1681  0.0386
  349XCA     C2 3134   0.433   3.310   7.817  0.1115  0.0587  0.1093
  349XCA     C3 3135   0.513   3.381   7.394 -0.0156  0.0544 -0.0411
  349XCA     C4 3136   0.592   3.475   6.992  0.0527 -0.1129 -0.3076
  349XCA     C5 3137   0.588   3.781   6.590 -0.0796 -0.0640 -0.0981
  349XCA     C6 3138   0.653   4.194   6.566  0.0464  0.1446  0.1726
  350XCA    COO 3139  15.820   3.504   8.906 -0.0800 -0.0234 -0.1049
  350XCA     C1 3140  15.534   3.294   8.622 -0.0944  0.2167 -0.2740
  350XCA     C2 3141  15.728   3.191   8.226 -0.1517 -0.3254  0.2286
  350XCA     C3 3142  15.858   3.230   7.693  0.0153 -0.0424  0.2936
  350XCA     C4 3143  16.134   2.969   7.399 -0.0903  0.0337 -0.3759
  350XCA     C5 3144  16.189   3.103   6.881 -0.0191 -0.2411 -0.0162
  350XCA     C6 3145  16.403   3.201   6.539  0.3325 -0.0220 -0.0768
  351CHOL   ROH 3146  11.878   6.629   7.647  0.3888 -0.0164  0.1762
  351CHOL    R1 3147  11.919   6.496   7.400  0.1104  0.0437  0.0943
  351CHOL    R2 3148  12.114   6.303   7.365  0.0889  0.0684 -0.1803
  351CHOL    R3 3149  11.904   6.153   7.278 -0.0015  0.0698  0.0310
  351CHOL    R4 3150  12.131   6.065   7.115 -0.1104 -0.0898 -0.0463
  351CHOL    R5 3151  11.938   6.135   7.042 -0.1365 -0.0828  0.0198
  351CHOL    C1 3152  11.944   5.786   6.888 -0.3114 -0.1805  0.2302
  351CHOL    C2 3153  12.160   5.784   6.522  0.0121 -0.2367 -0.0157
  352PNCE   AM1 3154   3.517  14.666   8.652  0.0935  0.0165 -0.3353
  352PNCE   AM2 3155   3.155  14.735   8.689  0.0378  0.0437  0.3817
  352PNCE   T1A 3156   3.366  14.457   8.285  0.1686  0.0400 -0.0632
  352PNCE   C2A 3157   3.363  14.479   7.824  0.3002  0.1325 -0.0409
  352PNCE   C3A 3158   3.139  14.437   7.377  0.0110 -0.4130  0.0541
  352PNCE   C1B 3159   3.180  15.011   8.373 -0.2172 -0.1102  0.0059
  352PNCE   C2B 3160   3.430  14.918   8.006  0.1418 -0.0900 -0.1865
  352PNCE   C3B 3161   3.596  15.033   7.566 -0.3482  0.3437 -0.3751
  352PNCE   D4B 3162   3.957  15.191   7.382  0.0782 -0.0358 -0.2224
  352PNCE   C5B 3163   4.118  14.895   7.114 -0.1215 -0.2233  0.4035
  352PNCE   C6B 3164   4.247  14.669   6.834 -0.1140  0.1540  0.0133
  353PNCE   AM1 3165  13.609   8.591   8.268 -0.2191  0.0545 -0.1514
  353PNCE   AM2 3166  13.401   8.862   8.341 -0.1773 -0.0135  0.0158
  353PNCE   T1A 3167  13.691   8.751   7.822  0.0869  0.1192  0.0728
  353PNCE   C2A 3168  13.592   8.972   7.387  0.0803 -0.2057  0.2199
  353PNCE   C3A 3169  13.483   9.260   7.077 -0.0441 -0.0800  0.2652
  353PNCE   C1B 3170  13.237   8.750   7.945  0.1807 -0.0684 -0.0228
  353PNCE   C2B 3171  13.317   8.643   7.560  0.1504 -0.0439 -0.0747
  353PNCE   C3B 3172  13.457   8.431   7.245 -0.2310 -0.0664  0.3259
  353PNCE   D4B 3173  13.382   8.012   7.049 -0.0150  0.2548 -0.1260
  353PNCE   C5B 3174  13.615   7.784   7.236 -0.1497  0.0218  0.2150
  353PNCE   C6B 3175  14.124   7.773   7.358 -0.3912  0.0308 -0.0835
  354PNCE   AM1 3176  12.267   6.261   9.009 -0.2731 -0.0072 -0.4375
  354PNCE   AM2 3177  12.461   5.952   9.062 -0.1331  0.1128 -0.0506
  354PNCE   T1A 3178  12.639   6.291   8.695 -0.3005  0.0568 -0.0212
  354PNCE   C2A 3179  12.836   6.473   8.350 -0.3604 -0.1322 -0.0490
  354PNCE   C3A 3180  13.071   6.670   7.997  0.1858  0.1546  0.0940
  354PNCE   C1B 3181  12.581   5.802   8.566 -0.0059 -0.4068  0.0185
  354PNCE   C2B 3182  13.035   5.865   8.366  0.1000  0.0023 -0.0514
  354PNCE   C3B 3183  13.150   5.934   7.933 -0.0870  0.2231  0.0092
  354PNCE   D4B 3184  13.409   5.937   7.652 -0.1475  0.0359 -0.0463
  354PNCE   C5B 3185  13.271   6.113   7.183 -0.1189  0.0852  0.1312
  354PNCE   C6B 3186  12.946   6.381   6.949  0.1455 -0.0268  0.1513
  355XCA    COO 3187  14.753   4.341   4.883 -0.2448  0.3569  0.1481
  355XCA     C1 3188  15.139   4.392   5.306 -0.1349  0.0573  0.1002
  355XCA     C2 3189  15.104   4.192   5.811  0.0165  0.3199  0.4420
  355XCA     C3 3190  15.064   4.155   6.255  0.2679  0.0194  0.6639
  355XCA     C4 3191  14.917   4.308   6.702  0.0170  0.0658 -0.0983
  355XCA     C5 3192  14.683   4.461   7.024  0.0558  0.1199 -0.0437
  355XCA     C6 3193  14.395   4.348   7.393  0.0149  0.2508  0.2284
  356CHOL   ROH 3194   3.344   3.405   4.564  0.0035 -0.0507  0.0183
  356CHOL    R1 3195   3.446   3.279   4.796 -0.0045  0.0556  0.0778
  356CHOL    R2 3196   3.597   3.414   4.984 -0.1978  0.1922  0.1249
  356CHOL    R3 3197   3.409   3.319   5.156 -0.1961  0.0647  0.0609
  356CHOL    R4 3198   3.661   3.302   5.304 -0.1878  0.0409  0.0723
  356CHOL    R5 3199   3.519   3.140   5.271 -0.1591  0.0221 -0.0253
  356CHOL    C1 3200   3.523   3.147   5.652 -0.1804 -0.1668 -0.0185
  356CHOL    C2 3201   3.535   2.880   5.870 -0.0882 -0.1634  0.1346
  357PNCE   AM1 3202  15.795  12.725   8.363 -0.3910  0.1245  0.0391
  357PNCE   AM2 3203  15.920  12.363   8.400 -0.0698 -0.2593  0.1165
  357PNCE   T1A 3204  15.853  12.563   7.912  0.1052  0.0060  0.1623
  357PNCE   C2A 3205  15.705  12.553   7.502 -0.2076 -0.0317  0.0640
  357PNCE   C3A 3206  15.646  12.938   7.185  0.0791  0.1657  0.0182
  357PNCE   C1B 3207  15.985  12.074   8.025  0.0481 -0.2296 -0.2065
  357PNCE   C2B 3208  15.951  12.119   7.630 -0.0962 -0.0439  0.0799
  357PNCE   C3B 3209  16.113  12.156   7.253  0.0376 -0.0131 -0.0842
  357PNCE   D4B 3210  16.332  12.484   7.027  0.0990 -0.2490 -0.0092
  357PNCE   C5B 3211  16.391  12.551   6.604 -0.2213  0.1347 -0.0602
  357PNCE   C6B 3212  16.741  12.378   6.472 -0.1164 -0.1440  0.0694
  358CHOL   ROH 3213   5.862  10.364   5.677 -0.0262  0.3146 -0.0044
  358CHOL    R1 3214   5.863  10.560   5.882  0.1270  0.3168 -0.0061
  358CHOL    R2 3215   5.907  10.498   6.147 -0.0968  0.2559  0.0170
  358CHOL    R3 3216   6.101  10.687   6.126  0.1714  0.0007  0.1203
  358CHOL    R4 3217   6.082  10.632   6.413 -0.2168  0.1789  0.1367
  358CHOL    R5 3218   6.068  10.827   6.317  0.1353  0.1487  0.0087
  358CHOL    C1 3219   6.366  10.888   6.548 -0.0349 -0.1055  0.3033
  358CHOL    C2 3220   6.277  10.809   6.925 -0.0935 -0.0359  0.1166
  359XCA    COO 3221  15.022  11.318   8.211  0.0001  0.0301 -0.3029
  359XCA     C1 3222  15.296  11.230   7.784  0.0468  0.0657  0.0843
  359XCA     C2 3223  15.530  10.954   7.443 -0.0012 -0.0171  0.2708
  359XCA     C3 3224  15.704  10.901   7.060  0.0347  0.1829  0.1996
  359XCA     C4 3225  15.405  10.846   6.750 -0.0043  0.0185  0.1933
  359XCA     C5 3226  14.932  10.979   6.685 -0.0531  0.1077  0.2006
  359XCA     C6 3227  14.736  11.133   6.315  0.1624 -0.0116  0.3409
  360PNCE   AM1 3228   3.233   2.638   8.819 -0.2513 -0.1209  0.1564
  360PNCE   AM2 3229   3.516   2.608   8.720  0.0323  0.1036  0.0840
  360PNCE   T1A 3230   2.970   2.647   8.368 -0.0130  0.0294  0.6816
  360PNCE   C2A 3231   2.990   2.512   7.939  0.0442  0.5480  0.1159
  360PNCE   C3A 3232   3.180   2.552   7.461  0.2345  0.2298  0.3581
  360PNCE   C1B 3233   3.414   2.824   8.308  0.2271 -0.4050 -0.1109
  360PNCE   C2B 3234   3.270   2.888   7.827 -0.0202 -0.2866 -0.1017
  360PNCE   C3B 3235   3.544   2.982   7.469  0.0449  0.0178 -0.1126
  360PNCE   D4B 3236   3.857   3.261   7.518 -0.0031  0.0020 -0.1096
  360PNCE   C5B 3237   4.050   3.321   7.156  0.2120 -0.1469  0.0312
  360PNCE   C6B 3238   4.542   3.472   7.064 -0.1035 -0.1914  0.2357
  361XCA    COO 3239  12.687  11.169   3.862 -0.0748 -0.2910  0.0961
  361XCA     C1 3240  12.654  11.383   4.216  0.3350 -0.1018  0.2039
  361XCA     C2 3241  12.793  11.754   4.499 -0.0259 -0.0025 -0.3127
  361XCA     C3 3242  12.959  12.095   4.787 -0.0530  0.1249  0.2910
  361XCA     C4 3243  12.810  12.280   5.137 -0.0470 -0.1307 -0.1043
  361XCA     C5 3244  12.624  12.369   5.599  0.0911 -0.3455  0.2096
  361XCA     C6 3245  12.524  12.717   5.926 -0.2785 -0.0351 -0.2223
  362CHOL   ROH 3246   0.114   9.982   6.741  0.1459 -0.0434  0.3669
  362CHOL    R1 3247   0.341   9.824   6.682  0.1200 -0.0427  0.2607
  362CHOL    R2 3248   0.335   9.618   6.498  0.0571  0.0080  0.2037
  362CHOL    R3 3249   0.545   9.752   6.389  0.0353  0.0252  0.1848
  362CHOL    R4 3250   0.599   9.470   6.331 -0.2205  0.0628 -0.3029
  362CHOL    R5 3251   0.734   9.611   6.429 -0.0162 -0.1768 -0.2265
  362CHOL    C1 3252   0.950   9.511   6.131 -0.4026  0.1108 -0.6156
  362CHOL    C2 3253   1.054   9.229   6.361 -0.1270  0.1207 -0.1300
  363CHOL   ROH 3254  11.083   4.241   7.954  0.0022  0.0291 -0.0803
  363CHOL    R1 3255  11.135   4.282   7.679  0.0041  0.0676 -0.0739
  363CHOL    R2 3256  11.135   4.533   7.562  0.1700  0.0989 -0.0035
  363CHOL    R3 3257  11.383   4.459   7.480  0.1113 -0.0529 -0.0507
  363CHOL    R4 3258  11.279   4.626   7.263  0.2315  0.1612  0.0451
  363CHOL    R5 3259  11.360   4.425   7.244  0.0722  0.1020 -0.0735
  363CHOL    C1 3260  11.597   4.612   7.011  0.2123  0.0549  0.0291
  363CHOL    C2 3261  11.921   4.808   6.786 -0.2517 -0.0627  0.2767
  364CHOL   ROH 3262  11.705   8.663   8.027 -0.0375  0.1155 -0.1086
  364CHOL    R1 3263  11.541   8.521   7.845  0.0177 -0.0707 -0.0137
  364CHOL    R2 3264  11.519   8.591   7.579 -0.2743 -0.0440  0.0197
  364CHOL    R3 3265  11.589   8.331   7.538  0.0458  0.0536 -0.0885
  364CHOL    R4 3266  11.476   8.419   7.282 -0.2759 -0.0299  0.0108
  364CHOL    R5 3267  11.415   8.245   7.398  0.0450 -0.1451  0.0250
  364CHOL    C1 3268  11.517   8.076   7.071  0.0236  0.0697 -0.0959
  364CHOL    C2 3269  11.384   8.174   6.638 -0.2291  0.1253  0.3257
  365CHOL   ROH 3270   2.957   2.817   6.639 -0.2811  0.0917  0.1024
  365CHOL    R1 3271   2.802   2.599   6.546 -0.3004  0.1023  0.1101
  365CHOL    R2 3272   2.562   2.633   6.414 -0.1821  0.1280 -0.1027
  365CHOL    R3 3273   2.681   2.479   6.225 -0.0953 -0.0382  0.0832
  365CHOL    R4 3274   2.395   2.419   6.200 -0.1071  0.0952 -0.1290
  365CHOL    R5 3275   2.556   2.274   6.227 -0.2017  0.0262  0.0898
  365CHOL    C1 3276   2.409   2.149   5.898  0.0181 -0.0800  0.0302
  365CHOL    C2 3277   2.391   1.811   5.786 -0.1114 -0.4084  0.2425
  366PNCE   AM1 3278   0.528   5.022   8.670 -0.1106  0.0304 -0.1235
  366PNCE   AM2 3279   0.182   5.130   8.906 -0.5232  0.1083  0.0811
  366PNCE   T1A 3280   0.389   4.972   8.242 -0.1368 -0.1024  0.0051
  366PNCE   C2A 3281   0.304   4.937   7.849  0.0393  0.0094  0.3590
  366PNCE   C3A 3282   0.187   5.199   7.528  0.0465 -0.0803 -0.1132
  366PNCE   C1B 3283   0.046   5.225   8.602 -0.1273  0.0174  0.1218
  366PNCE   C2B 3284   0.002   5.245   8.104  0.0436 -0.4172  0.0594
  366PNCE   C3B 3285  -0.284   5.100   7.747  0.1247 -0.0612 -0.2508
  366PNCE   D4B 3286  -0.189   4.839   7.355 -0.1400 -0.1441  0.1442
  366PNCE   C5B 3287   0.188   4.707   7.395 -0.1592  0.1871 -0.0325
  366PNCE   C6B 3288   0.571   4.779   7.428 -0.0691 -0.1072  0.2782
  367CHOL   ROH 3289  14.769   2.199   4.659  0.1532 -0.1174 -0.1289
  367CHOL    R1 3290  14.755   2.006   4.865  0.0118 -0.0878 -0.1086
  367CHOL    R2 3291  14.936   1.798   4.887 -0.0205 -0.1082  0.0265
  367CHOL    R3 3292  14.968   1.896   5.139 -0.1572 -0.0712  0.0296
  367CHOL    R4 3293  15.125   1.648   5.134  0.0319  0.0539  0.0858
  367CHOL    R5 3294  14.970   1.701   5.278 -0.0420 -0.0581  0.0414
  367CHOL    C1 3295  15.265   1.651   5.514 -0.0660  0.1831  0.1233
  367CHOL    C2 3296  15.227   1.486   5.759 -0.0860 -0.0271  0.5339
  368CHOL   ROH 3297   7.321  10.999   8.511 -0.1551  0.1043  0.0897
  368CHOL    R1 3298   7.200  11.042   8.259 -0.2144  0.0247  0.1051
  368CHOL    R2 3299   7.326  10.982   8.021 -0.1615  0.2081  0.0893
  368CHOL    R3 3300   7.100  10.837   7.975 -0.0108 -0.0258  0.0674
  368CHOL    R4 3301   7.225  10.868   7.711 -0.2527  0.5273 -0.0028
  368CHOL    R5 3302   7.019  10.918   7.764 -0.2863  0.1828  0.2439
  368CHOL    C1 3303   6.954  10.665   7.487 -0.1643  0.4936 -0.0770
  368CHOL    C2 3304   7.132  10.700   7.121 -0.0318 -0.0730  0.3756
  369PNCE   AM1 3305  14.648  13.568   8.254 -0.1847 -0.0895 -0.0364
  369PNCE   AM2 3306  14.691  13.821   8.465  0.2004 -0.0979 -0.2331
  369PNCE   T1A 3307  15.024  13.459   8.207  0.0048 -0.3957  0.1155
  369PNCE   C2A 3308  15.348  13.266   8.009 -0.0761  0.2009 -0.4708
  369PNCE   C3A 3309  15.568  13.104   7.726  0.1349  0.2089  0.1128
  369PNCE   C1B 3310  14.493  14.125   8.155 -0.1528 -0.1077  0.0409
  369PNCE   C2B 3311  14.506  14.206   7.670  0.2346  0.0493  0.2464
  369PNCE   C3B 3312  14.740  14.369   7.318 -0.3781  0.2281 -0.0822
  369PNCE   D4B 3313  14.933  14.401   6.863  0.0121  0.1708  0.1465
  369PNCE   C5B 3314  15.326  14.587   6.726 -0.3142  0.1062  0.0734
  369PNCE   C6B 3315  15.658  14.618   6.490  0.1701  0.0803 -0.1644
  370PNCE   AM1 3316   1.518   0.741   8.693  0.0837  0.2299  0.4351
  370PNCE   AM2 3317   1.485   0.404   8.654  0.1261  0.2052 -0.0357
  370PNCE   T1A 3318   1.406   0.874   8.226  0.1652 -0.0220 -0.0745
  370PNCE   C2A 3319   1.380   1.325   8.014 -0.0104 -0.0141 -0.2057
  370PNCE   C3A 3320   1.690   1.611   7.816 -0.0682 -0.2357  0.0401
  370PNCE   C1B 3321   1.821   0.570   8.279  0.2933  0.0171  0.3579
  370PNCE   C2B 3322   2.092   0.778   7.954  0.1401  0.0168  0.0661
  370PNCE   C3B 3323   2.290   0.866   7.623  0.0675 -0.2591 -0.0367
  370PNCE   D4B 3324   2.594   0.884   7.276 -0.0424  0.0033  0.2839
  370PNCE   C5B 3325   2.616   0.712   6.839 -0.0999 -0.0651  0.1266
  370PNCE   C6B 3326   2.321   0.373   6.658 -0.1409 -0.0415 -0.2858
  371CHOL   ROH 3327  13.526   1.682   7.627  0.1275 -0.2354 -0.0496
  371CHOL    R1 3328  13.343   1.645   7.415 -0.0375 -0.1338  0.0703
  371CHOL    R2 3329  13.312   1.829   7.211 -0.0024 -0.1566  0.0375
  371CHOL    R3 3330  13.362   1.613   7.052 -0.2813 -0.2453  0.0667
  371CHOL    R4 3331  13.224   1.804   6.878  0.2184  0.0268 -0.0366
  371CHOL    R5 3332  13.168   1.596   6.913 -0.2042  0.1274 -0.0914
  371CHOL    C1 3333  13.219   1.588   6.535  0.0851  0.0504 -0.0523
  371CHOL    C2 3334  13.063   1.698   6.158  0.4025  0.0650 -0.0164
  372CHOL   ROH 3335   1.176   6.731   5.177 -0.1362  0.2982  0.2731
  372CHOL    R1 3336   1.169   6.646   5.447 -0.0954  0.0050  0.1862
  372CHOL    R2 3337   1.070   6.805   5.650  0.1311 -0.1249  0.4075
  372CHOL    R3 3338   0.914   6.588   5.700 -0.0419 -0.0443  0.2275
  372CHOL    R4 3339   0.914   6.738   5.952  0.2179 -0.3429  0.4061
  372CHOL    R5 3340   0.966   6.528   5.926  0.0143 -0.3610  0.1331
  372CHOL    C1 3341   0.677   6.496   6.173  0.1061 -0.3942  0.2364
  372CHOL    C2 3342   0.522   6.720   6.451 -0.0879 -0.1220 -0.1196
  373CHOL   ROH 3343   8.725   5.291   4.709  0.0468  0.0169  0.0618
  373CHOL    R1 3344   8.662   5.186   4.964  0.0539  0.1108  0.1023
  373CHOL    R2 3345   8.852   5.078   5.132  0.0337  0.0261  0.0673
  373CHOL    R3 3346   8.751   5.258   5.310  0.1991  0.1264  0.0632
  373CHOL    R4 3347   8.917   5.077   5.472 -0.2958 -0.2958  0.1350
  373CHOL    R5 3348   8.707   5.128   5.507 -0.2456  0.0884 -0.0477
  373CHOL    C1 3349   8.859   5.245   5.836 -0.3324 -0.3892  0.1705
  373CHOL    C2 3350   9.158   4.983   5.998  0.0248 -0.2869 -0.0514
  374XCA    COO 3351  15.462  13.651   8.230  0.2201 -0.0456  0.0866
  374XCA     C1 3352  15.393  13.650   7.712 -0.3949  0.2126 -0.1912
  374XCA     C2 3353  15.640  13.420   7.397 -0.1878  0.0064  0.2517
  374XCA     C3 3354  15.838  13.414   7.002 -0.1263  0.0969 -0.1413
  374XCA     C4 3355  16.221  13.364   6.709 -0.1249 -0.1158  0.1319
  374XCA     C5 3356  16.608  13.526   6.602 -0.1242 -0.0944 -0.2777
  374XCA     C6 3357  16.825  13.870   6.366  0.1299 -0.0276  0.0551
  375CHOL   ROH 3358  12.830  14.927   8.320  0.1638 -0.0668 -0.0659
  375CHOL    R1 3359  12.864  15.077   8.083  0.0032  0.0881  0.0063
  375CHOL    R2 3360  12.943  14.962   7.844  0.1955  0.2962 -0.0345
  375CHOL    R3 3361  12.718  15.083   7.749  0.0466  0.0421 -0.0136
  375CHOL    R4 3362  12.888  15.047   7.513  0.1097  0.3234 -0.0135
  375CHOL    R5 3363  12.797  15.233   7.581 -0.1309  0.1930  0.0347
  375CHOL    C1 3364  12.645  15.210   7.232 -0.0799  0.1008  0.0184
  375CHOL    C2 3365  12.441  15.541   7.110  0.0554 -0.1596 -0.0161
  376PNCE   AM1 3366   8.986   2.949   8.335  0.0986  0.0390  0.3797
  376PNCE   AM2 3367   8.881   2.707   8.281 -0.2062 -0.2363  0.0189
  376PNCE   T1A 3368   9.320   2.923   8.039  0.2163  0.1187  0.2464
  376PNCE   C2A 3369   9.344   2.916   7.597 -0.0848  0.4767 -0.0679
  376PNCE   C3A 3370   9.417   2.983   7.155  0.1423  0.0402 -0.0163
  376PNCE   C1B 3371   8.869   2.769   7.787  0.2450  0.2404  0.0268
  376PNCE   C2B 3372   8.905   2.799   7.341 -0.1153 -0.1815  0.1932
  376PNCE   C3B 3373   8.957   2.811   6.873  0.0100  0.2169 -0.4388
  376PNCE   D4B 3374   8.947   2.779   6.391 -0.2208 -0.3450  0.0582
  376PNCE   C5B 3375   9.214   2.517   6.361  0.1181  0.1686  0.2982
  376PNCE   C6B 3376   9.480   2.451   6.695  0.0431 -0.2375  0.2559
  377XCA    COO 3377   2.533   2.876   8.344 -0.2043 -0.3015 -0.0365
  377XCA     C1 3378   2.341   2.794   7.971 -0.1339 -0.3748 -0.0653
  377XCA     C2 3379   2.283   2.786   7.524 -0.0575 -0.1293  0.0293
  377XCA     C3 3380   2.282   2.787   7.062 -0.0913  0.1243 -0.1450
  377XCA     C4 3381   1.886   2.961   6.798 -0.1339  0.0561 -0.2307
  377XCA     C5 3382   1.592   3.102   6.518  0.2909  0.5579  0.0665
  377XCA     C6 3383   1.494   3.413   6.324  0.1329  0.0708  0.2004
  378PNCE   AM1 3384  12.327   0.316   8.504 -0.2548 -0.1746  0.2306
  378PNCE   AM2 3385  12.526   0.084   8.677 -0.0662  0.0721 -0.0892
  378PNCE   T1A 3386  12.672   0.602   8.286 -0.0045 -0.1267 -0.1712
  378PNCE   C2A 3387  12.851   0.608   7.934  0.1399  0.0956  0.2443
  378PNCE   C3A 3388  12.740   0.936   7.657 -0.2688  0.4154 -0.1301
  378PNCE   C1B 3389  12.392  -0.198   8.329  0.0374 -0.3275 -0.1173
  378PNCE   C2B 3390  12.082  -0.129   8.019 -0.0758  0.3143  0.1869
  378PNCE   C3B 3391  11.751  -0.050   7.870  0.1386  0.1350 -0.0367
  378PNCE   D4B 3392  11.739   0.065   7.403 -0.1803  0.0912 -0.3816
  378PNCE   C5B 3393  11.582   0.599   7.522 -0.1002  0.0309 -0.0612
  378PNCE   C6B 3394  11.320   0.927   7.479  0.1571  0.1204 -0.1225
  379CHOL   ROH 3395  10.346  12.843   7.526  0.1150  0.2152 -0.0035
  379CHOL    R1 3396  10.398  12.695   7.290  0.0595  0.1515  0.0242
  379CHOL    R2 3397  10.245  12.478   7.214  0.0513  0.1220  0.1273
  379CHOL    R3 3398  10.221  12.617   6.982 -0.0193  0.0537  0.0932
  379CHOL    R4 3399  10.100  12.356   6.926  0.0280  0.0082  0.1866
  379CHOL    R5 3400  10.257  12.453   6.811 -0.0121  0.0128  0.1321
  379CHOL    C1 3401   9.992  12.415   6.540 -0.0520 -0.1222  0.1892
  379CHOL    C2 3402  10.107  12.230   6.328  0.0964 -0.1238 -0.0960
  380CHOL   ROH 3403   2.089   1.908   7.840  0.1605 -0.1092 -0.0025
  380CHOL    R1 3404   2.023   1.919   7.565  0.0247 -0.0101  0.0338
  380CHOL    R2 3405   2.129   1.744   7.378  0.0181  0.1271 -0.0972
  380CHOL    R3 3406   1.868   1.699   7.320  0.0109  0.0329  0.0029
  380CHOL    R4 3407   2.014   1.596   7.088 -0.0294 -0.0524  0.0113
  380CHOL    R5 3408   1.851   1.740   7.085 -0.0669 -0.0921 -0.0160
  380CHOL    C1 3409   1.702   1.467   6.865 -0.0638 -0.2454  0.1684
  380CHOL    C2 3410   1.770   1.356   6.511 -0.0325  0.3749 -0.2340
  381CHOL   ROH 3411  10.884  15.629   8.259 -0.1415  0.0653  0.1921
  381CHOL    R1 3412  10.909  15.630   7.977 -0.2565 -0.0507  0.1811
  381CHOL    R2 3413  10.723  15.752   7.811 -0.2047  0.0789  0.2201
  381CHOL    R3 3414  10.942  15.880   7.715 -0.1154 -0.1675  0.0851
  381CHOL    R4 3415  10.804  15.782   7.477 -0.2213 -0.2663  0.1807
  381CHOL    R5 3416  11.013  15.748   7.528 -0.2384 -0.3826  0.1852
  381CHOL    C1 3417  11.057  15.921   7.192 -0.1472 -0.6986  0.0310
  381CHOL    C2 3418  11.078  15.774   6.909 -0.1009 -0.0172 -0.3230
  382PNCE   AM1 3419   1.159  15.157   8.465  0.1502  0.1702  0.2480
  382PNCE   AM2 3420   0.804  15.254   8.302 -0.1381  0.0957 -0.4037
  382PNCE   T1A 3421   1.499  14.857   8.334 -0.1328  0.5110 -0.4398
  382PNCE   C2A 3422   1.822  14.755   8.033 -0.1798  0.0417 -0.0684
  382PNCE   C3A 3423   1.876  14.410   7.808  0.1707  0.0460 -0.2896
  382PNCE   C1B 3424   0.810  15.281   7.894 -0.1857 -0.0126  0.0234
  382PNCE   C2B 3425   0.793  15.299   7.415 -0.2993  0.0674  0.0424
  382PNCE   C3B 3426   0.752  15.335   6.988 -0.1025 -0.0366  0.0316
  382PNCE   D4B 3427   0.382  15.250   6.744 -0.2372  0.1412 -0.0845
  382PNCE   C5B 3428   0.205  15.604   6.519 -0.1775  0.1133  0.0080
  382PNCE   C6B 3429  -0.209  16.024   6.421  0.0635 -0.3177  0.0955
  383PNCE   AM1 3430  11.049  14.358   8.136  0.5142  0.2199 -0.0517
  383PNCE   AM2 3431  11.023  13.956   8.093  0.0854 -0.0318  0.2440
  383PNCE   T1A 3432  11.263  14.326   7.796  0.4141 -0.1095 -0.0392
  383PNCE   C2A 3433  11.113  14.160   7.432 -0.2738  0.3273 -0.0181
  383PNCE   C3A 3434  11.145  14.395   6.910  0.1384  0.1802 -0.3316
  383PNCE   C1B 3435  10.943  13.744   7.640  0.0521  0.1227 -0.1062
  383PNCE   C2B 3436  10.828  13.765   7.233 -0.0477  0.3742 -0.2442
  383PNCE   C3B 3437  10.833  13.891   6.809 -0.0202 -0.2973 -0.1220
  383PNCE   D4B 3438  10.895  14.191   6.515  0.0195 -0.2929 -0.2759
  383PNCE   C5B 3439  10.625  14.578   6.358 -0.0965  0.2077 -0.2465
  383PNCE   C6B 3440  10.621  15.006   6.277 -0.0587 -0.1785  0.0810
  384PNCE   AM1 3441   1.395   3.760   8.766 -0.2544 -0.0479  0.1075
  384PNCE   AM2 3442   1.569   3.830   9.083  0.1236  0.3675 -0.0441
  384PNCE   T1A 3443   1.402   3.629   8.328 -0.0395  0.0676 -0.0076
  384PNCE   C2A 3444   1.299   3.752   7.981 -0.2312 -0.2380  0.0319
  384PNCE   C3A 3445   1.122   3.663   7.728 -0.2490  0.1928  0.3975
  384PNCE   C1B 3446   1.364   4.252   8.963 -0.0052  0.0399  0.2728
  384PNCE   C2B 3447   1.478   4.673   8.856  0.0713 -0.0126 -0.1226
  384PNCE   C3B 3448   1.444   4.997   8.634  0.2388 -0.2174 -0.1046
  384PNCE   D4B 3449   1.330   5.023   8.189 -0.0775 -0.4215  0.0308
  384PNCE   C5B 3450   1.511   4.838   7.812  0.1629  0.0189  0.1347
  384PNCE   C6B 3451   1.582   4.517   7.482 -0.2946 -0.0415  0.1568
  385CHOL   ROH 3452  15.083   9.439   5.261 -0.1716  0.0254  0.0307
  385CHOL    R1 3453  15.058   9.634   5.464 -0.1667 -0.0565  0.1102
  385CHOL    R2 3454  15.134   9.587   5.726 -0.0633 -0.1273  0.0666
  385CHOL    R3 3455  15.282   9.812   5.689 -0.1490 -0.0644  0.0995
  385CHOL    R4 3456  15.271   9.778   5.979  0.0501 -0.2404  0.0914
  385CHOL    R5 3457  15.217   9.957   5.868 -0.0734 -0.1871  0.2301
  385CHOL    C1 3458  15.491  10.100   6.091  0.0357 -0.2472  0.1368
  385CHOL    C2 3459  15.491  10.492   6.312 -0.0899 -0.1684  0.2284
  386PNCE   AM1 3460   3.125  12.856   8.921  0.0706  0.0325  0.0271
  386PNCE   AM2 3461   3.465  12.987   8.888 -0.3654  0.1814 -0.1867
  386PNCE   T1A 3462   3.137  12.826   8.419  0.0493 -0.1192  0.0077
  386PNCE   C2A 3463   3.137  13.039   8.052 -0.0897  0.1750  0.1847
  386PNCE   C3A 3464   3.191  13.275   7.660  0.1469  0.0390 -0.0815
  386PNCE   C1B 3465   3.604  13.018   8.362  0.1320  0.2638  0.3402
  386PNCE   C2B 3466   3.637  12.923   7.927  0.1376 -0.1362 -0.3639
  386PNCE   C3B 3467   3.552  12.930   7.496  0.1709 -0.0729  0.0126
  386PNCE   D4B 3468   3.230  13.130   7.173 -0.4168  0.4684  0.0498
  386PNCE   C5B 3469   2.801  13.150   7.350  0.1371 -0.3351  0.0358
  386PNCE   C6B 3470   2.838  13.578   7.658 -0.0481  0.1391 -0.0348
  387CHOL   ROH 3471   2.860   1.665   8.623 -0.0533  0.1967  0.0960
  387CHOL    R1 3472   2.904   1.481   8.413 -0.1033  0.1642  0.1148
  387CHOL    R2 3473   2.860   1.545   8.148  0.0140  0.1837  0.1031
  387CHOL    R3 3474   3.118   1.461   8.119 -0.0273  0.0240  0.1770
  387CHOL    R4 3475   3.022   1.503   7.845  0.1134  0.2206  0.1498
  387CHOL    R5 3476   3.113   1.322   7.924 -0.0414  0.1171  0.1065
  387CHOL    C1 3477   3.357   1.400   7.642  0.1323  0.0920  0.2463
  387CHOL    C2 3478   3.676   1.336   7.398  0.1217  0.1711 -0.0393
  388CHOL   ROH 3479  14.983   3.753   8.449 -0.4315 -0.0758 -0.0164
  388CHOL    R1 3480  14.901   3.703   8.183 -0.2200 -0.1288 -0.0720
  388CHOL    R2 3481  15.046   3.788   7.964 -0.0738 -0.1343  0.0326
  388CHOL    R3 3482  15.033   3.526   7.893  0.0293 -0.1450  0.0459
  388CHOL    R4 3483  15.057   3.671   7.639 -0.1500 -0.1210  0.0238
  388CHOL    R5 3484  14.903   3.525   7.692 -0.0615 -0.2047  0.0953
  388CHOL    C1 3485  15.052   3.357   7.383 -0.0976 -0.1233  0.0311
  388CHOL    C2 3486  15.277   3.097   7.201  0.2557  0.1300  0.1031
  389PNCE   AM1 3487   4.900   3.996   8.751 -0.1182 -0.0915  0.0624
  389PNCE   AM2 3488   4.634   4.243   8.866  0.0333 -0.1350  0.0155
  389PNCE   T1A 3489   4.865   4.224   8.346 -0.0962 -0.0095 -0.0294
  389PNCE   C2A 3490   5.003   4.628   8.116  0.0063  0.2115 -0.0935
  389PNCE   C3A 3491   5.174   5.023   8.109 -0.0426 -0.0016  0.0534
  389PNCE   C1B 3492   4.616   4.700   8.712 -0.0798 -0.3145 -0.4999
  389PNCE   C2B 3493   4.711   4.972   8.333  0.0401 -0.1388  0.1156
  389PNCE   C3B 3494   4.652   5.220   8.035  0.0211 -0.0333  0.1995
  389PNCE   D4B 3495   4.524   5.554   7.754 -0.0319  0.0812  0.4445
  389PNCE   C5B 3496   4.595   5.951   7.918  0.3290  0.2048  0.1804
  389PNCE   C6B 3497   4.705   6.404   8.123 -0.1577 -0.4097 -0.1741
  390CHOL   ROH 3498   8.592  12.020   5.242  0.2444  0.0288  0.1220
  390CHOL    R1 3499   8.433  11.925   5.456  0.0464  0.1076  0.0143
  390CHOL    R2 3500   8.543  11.810   5.683 -0.1748 -0.1350  0.0059
  390CHOL    R3 3501   8.396  12.000   5.810 -0.0022 -0.0204  0.0360
  390CHOL    R4 3502   8.504  11.833   6.026 -0.0658 -0.0864  0.0145
  390CHOL    R5 3503   8.295  11.883   5.994 -0.0371  0.0644  0.0693
  390CHOL    C1 3504   8.344  12.024   6.345  0.1596  0.0495  0.0476
  390CHOL    C2 3505   8.393  12.278   6.674 -0.0162  0.0713  0.1966
  391XCA    COO 3506   4.143   3.339   8.677  0.4154  0.2779  0.0849
  391XCA     C1 3507   4.201   3.298   8.301  0.0542 -0.1415  0.0581
  391XCA     C2 3508   4.128   3.401   7.859  0.2335  0.1959  0.0096
  391XCA     C3 3509   4.106   3.712   7.501 -0.0995  0.1644 -0.1222
  391XCA     C4 3510   3.732   3.748   7.239  0.0656  0.0588  0.1079
  391XCA     C5 3511   3.583   3.326   6.989 -0.0388  0.0017  0.2198
  391XCA     C6 3512   3.400   2.956   6.948 -0.3279  0.0591  0.1611
  392CHOL   ROH 3513  15.553   0.673   5.563  0.3065 -0.1449 -0.3118
  392CHOL    R1 3514  15.627   0.672   5.836  0.1544 -0.0591 -0.2684
  392CHOL    R2 3515  15.794   0.480   5.943  0.0610 -0.0514 -0.1042
  392CHOL    R3 3516  15.937   0.696   6.025  0.0543 -0.0471 -0.1048
  392CHOL    R4 3517  15.896   0.536   6.268  0.1374 -0.0930 -0.1210
  392CHOL    R5 3518  15.847   0.747   6.242  0.1035 -0.0950 -0.0731
  392CHOL    C1 3519  16.090   0.772   6.535  0.1756 -0.1132 -0.1314
  392CHOL    C2 3520  16.238   0.742   6.916  0.0973  0.0295 -0.3858
  393XCA    COO 3521   6.934  15.089   8.347 -0.0670 -0.2534 -0.3225
  393XCA     C1 3522   6.812  15.207   7.972 -0.2325 -0.1288 -0.0866
  393XCA     C2 3523   6.698  15.259   7.579  0.1334 -0.2445 -0.0126
  393XCA     C3 3524   6.403  15.299   7.300 -0.0055 -0.4805  0.2192
  393XCA     C4 3525   6.052  15.314   6.988 -0.2151 -0.3008  0.1582
  393XCA     C5 3526   5.613  15.036   6.864  0.0806 -0.2317 -0.0805
  393XCA     C6 3527   5.201  14.979   6.760 -0.0185 -0.1250 -0.0677
  394PNCE   AM1 3528  12.721  13.861   7.982  0.1608  0.2280  0.0980
  394PNCE   AM2 3529  12.596  13.446   7.925  0.0396  0.0535 -0.1216
  394PNCE   T1A 3530  12.912  13.662   7.532  0.1174 -0.1571 -0.0643
  394PNCE   C2A 3531  12.786  13.502   7.204  0.1018 -0.2217  0.2491
  394PNCE   C3A 3532  12.801  13.118   6.941 -0.2119 -0.1834  0.3295
  394PNCE   C1B 3533  13.123  13.408   7.887 -0.1920 -0.0993  0.2859
  394PNCE   C2B 3534  13.294  13.028   7.797 -0.0411 -0.1192  0.0743
  394PNCE   C3B 3535  13.601  12.828   7.551 -0.0383 -0.1075  0.0455
  394PNCE   D4B 3536  13.527  12.633   7.253 -0.1481 -0.1818 -0.2272
  394PNCE   C5B 3537  13.709  12.810   6.806  0.4034 -0.1337 -0.2309
  394PNCE   C6B 3538  13.853  13.023   6.485  0.3104  0.0085  0.1284
  395CHOL   ROH 3539   8.502  11.275   4.949  0.1385  0.2548  0.0036
  395CHOL    R1 3540   8.627  11.096   5.129  0.0283  0.1767  0.0035
  395CHOL    R2 3541   8.880  11.141   5.233  0.0043  0.0843  0.1031
  395CHOL    R3 3542   8.752  11.109   5.471 -0.0872  0.0583  0.0512
  395CHOL    R4 3543   9.037  11.099   5.538 -0.1122 -0.0098  0.1510
  395CHOL    R5 3544   8.886  10.950   5.589 -0.1594  0.0074  0.0662
  395CHOL    C1 3545   9.009  11.043   5.938 -0.2659 -0.0889  0.1302
  395CHOL    C2 3546   9.303  11.142   5.964  0.1433 -0.0891  0.1296
  396CHOL   ROH 3547   1.132   8.862   8.569 -0.1209  0.1338 -0.0034
  396CHOL    R1 3548   0.956   8.826   8.350 -0.1512  0.0782  0.0292
  396CHOL    R2 3549   0.811   9.034   8.240 -0.0450  0.0835 -0.1085
  396CHOL    R3 3550   0.929   8.950   8.010 -0.0981 -0.1402 -0.0558
  396CHOL    R4 3551   0.677   9.072   7.924 -0.0769 -0.1529 -0.1249
  396CHOL    R5 3552   0.748   8.872   7.875 -0.1334 -0.2107  0.0343
  396CHOL    C1 3553   0.710   9.016   7.523 -0.1452 -0.5006 -0.0851
  396CHOL    C2 3554   0.840   9.222   7.204  0.0318  0.2084 -0.0387
  397PNCE   AM1 3555   0.206   5.985   9.328 -0.2641 -0.2859  0.3902
  397PNCE   AM2 3556   0.506   5.784   9.438  0.3170 -0.4426 -0.1919
  397PNCE   T1A 3557   0.167   6.206   8.896  0.3140 -0.0049 -0.1269
  397PNCE   C2A 3558   0.065   6.384   8.505  0.0421  0.1515 -0.2775
  397PNCE   C3A 3559  -0.044   6.429   8.131 -0.1259 -0.1379 -0.1357
  397PNCE   C1B 3560   0.576   5.930   8.979 -0.1940 -0.1377 -0.0011
  397PNCE   C2B 3561   0.544   6.100   8.512  0.0772  0.0032  0.0136
  397PNCE   C3B 3562   0.446   6.180   8.080 -0.3245 -0.1254 -0.1343
  397PNCE   D4B 3563   0.589   6.043   7.725  0.1056  0.1302 -0.1816
  397PNCE   C5B 3564   0.929   5.803   7.747 -0.2540 -0.2352 -0.0145
  397PNCE   C6B 3565   1.241   5.471   7.682  0.1406 -0.1125  0.1369
  398CHOL   ROH 3566  14.029   4.198   5.100  0.0884  0.1960 -0.0349
  398CHOL    R1 3567  14.255   4.296   5.239 -0.0360  0.0741  0.2621
  398CHOL    R2 3568  14.405   4.510   5.149  0.3907 -0.2004  0.2782
  398CHOL    R3 3569  14.354   4.608   5.397  0.0531  0.1354  0.0853
  398CHOL    R4 3570  14.599   4.744   5.313  0.2924 -0.1497  0.3220
  398CHOL    R5 3571  14.570   4.632   5.497 -0.0918  0.0921  0.4137
  398CHOL    C1 3572  14.665   4.972   5.642 -0.0816  0.1949  0.1664
  398CHOL    C2 3573  14.945   5.158   5.863 -0.0705 -0.3113 -0.1858
  399CHOL   ROH 3574   0.210   4.614   8.792  0.0057 -0.1072 -0.1295
  399CHOL    R1 3575   0.065   4.572   8.553 -0.0437 -0.0813 -0.1063
  399CHOL    R2 3576   0.010   4.775   8.374 -0.1113 -0.0499 -0.0632
  399CHOL    R3 3577   0.128   4.607   8.196 -0.1236 -0.0053 -0.1107
  399CHOL    R4 3578  -0.101   4.719   8.052 -0.1931 -0.0749 -0.0295
  399CHOL    R5 3579  -0.055   4.508   8.078 -0.1241 -0.0543 -0.0563
  399CHOL    C1 3580  -0.054   4.528   7.697 -0.2523 -0.0474 -0.0544
  399CHOL    C2 3581  -0.098   4.286   7.398  0.1776  0.3438  0.2586
  400XCA    COO 3582  15.750  10.849   9.383  0.1101 -0.0220  0.0974
  400XCA     C1 3583  15.947  10.716   8.955  0.2236  0.3158 -0.0372
  400XCA     C2 3584  15.698  10.872   8.566  0.4040 -0.2170 -0.2460
  400XCA     C3 3585  15.731  10.705   8.152 -0.4416  0.1325 -0.1678
  400XCA     C4 3586  15.824  10.642   7.694  0.3646  0.1108 -0.2115
  400XCA     C5 3587  16.212  10.826   7.492  0.0262  0.2827  0.0665
  400XCA     C6 3588  16.321  11.179   7.289  0.0593  0.1606 -0.1505
  401CHOL   ROH 3589   8.636  13.506   7.071  0.0247  0.1584 -0.0837
  401CHOL    R1 3590   8.462  13.696   7.187 -0.0535  0.0424 -0.0089
  401CHOL    R2 3591   8.391  13.690   7.455  0.0963  0.0166  0.0306
  401CHOL    R3 3592   8.481  13.947   7.451 -0.0937  0.0844 -0.0455
  401CHOL    R4 3593   8.321  13.928   7.696  0.0576 -0.0123  0.0480
  401CHOL    R5 3594   8.298  14.075   7.537 -0.1415 -0.0421  0.0458
  401CHOL    C1 3595   8.365  14.307   7.833 -0.1433  0.0346 -0.0131
  401CHOL    C2 3596   8.007  14.411   7.997 -0.1247 -0.3488  0.0921
  402CHOL   ROH 3597   4.485  14.972   5.309  0.0412  0.0779 -0.2039
  402CHOL    R1 3598   4.533  15.107   5.553  0.0200 -0.0118 -0.1492
  402CHOL    R2 3599   4.401  15.042   5.787 -0.0836 -0.0242 -0.2057
  402CHOL    R3 3600   4.653  15.016   5.885 -0.1237 -0.1604 -0.1379
  402CHOL    R4 3601   4.482  15.032   6.123 -0.1774 -0.1450 -0.1867
  402CHOL    R5 3602   4.655  15.156   6.080 -0.1130 -0.2137 -0.1039
  402CHOL    C1 3603   4.765  15.001   6.411 -0.2697 -0.3431 -0.1121
  402CHOL    C2 3604   4.701  14.769   6.665 -0.3843  0.0754 -0.0452
  403XCA    COO 3605   1.990   7.929   6.042 -0.3763 -0.1082 -0.0319
  403XCA     C1 3606   1.665   7.724   6.126 -0.1389 -0.1654 -0.2245
  403XCA     C2 3607   1.478   7.411   6.576  0.1366 -0.0909  0.3261
  403XCA     C3 3608   1.498   7.200   6.963  0.1282  0.1718  0.1449
  403XCA     C4 3609   1.302   7.107   7.256 -0.0674  0.1016 -0.0971
  403XCA     C5 3610   1.124   7.266   7.583 -0.2541 -0.2014 -0.0841
  403XCA     C6 3611   1.120   7.642   7.869 -0.2543  0.1586  0.1172
  404XCA    COO 3612   3.770   3.390   4.295 -0.0913 -0.0820 -0.2178
  404XCA     C1 3613   3.878   3.174   4.637  0.0478  0.0834 -0.1701
  404XCA     C2 3614   3.777   2.909   4.957  0.0929  0.1037  0.0427
  404XCA     C3 3615   3.838   2.769   5.392  0.1609  0.3191 -0.1366
  404XCA     C4 3616   4.074   2.689   5.729 -0.2164  0.1670 -0.1421
  404XCA     C5 3617   4.383   2.843   6.009 -0.0570 -0.0924 -0.0443
  404XCA     C6 3618   4.482   2.661   6.382 -0.0991  0.0577 -0.1582
  405PNCE   AM1 3619   5.421  10.102   9.403 -0.0767 -0.3024  0.2170
  405PNCE   AM2 3620   5.513   9.754   9.394 -0.1620 -0.0604 -0.2138
  405PNCE   T1A 3621   5.450  10.209   9.043 -0.1693  0.0261 -0.2358
  405PNCE   C2A 3622   5.587  10.285   8.692  0.0584  0.1242  0.1101
  405PNCE   C3A 3623   5.282  10.518   8.257  0.3486  0.0108  0.1276
  405PNCE   C1B 3624   5.318   9.695   9.087 -0.1043  0.0830  0.0680
  405PNCE   C2B 3625   5.373   9.785   8.695 -0.0653 -0.1424  0.3414
  405PNCE   C3B 3626   5.540   9.909   8.317  0.1711  0.1045  0.0661
  405PNCE   D4B 3627   5.924  10.001   8.189 -0.0224 -0.1836 -0.0578
  405PNCE   C5B 3628   6.192  10.295   7.992  0.3359  0.0783 -0.0424
  405PNCE   C6B 3629   6.147  10.557   7.653  0.2491 -0.0356  0.1975
  406PNCE   AM1 3630   8.349   9.255   8.498  0.0423 -0.0202 -0.0119
  406PNCE   AM2 3631   8.468   9.020   8.305  0.0985  0.0506 -0.2265
  406PNCE   T1A 3632   8.198   9.460   8.149 -0.1474 -0.1115 -0.0171
  406PNCE   C2A 3633   8.116   9.492   7.730 -0.0270 -0.3121  0.1168
  406PNCE   C3A 3634   8.125   9.459   7.347  0.0094  0.2022  0.3260
  406PNCE   C1B 3635   8.435   9.090   7.854 -0.0507  0.1386 -0.1066
  406PNCE   C2B 3636   8.436   9.125   7.381 -0.0994  0.2307 -0.0434
  406PNCE   C3B 3637   8.224   9.145   6.942  0.2803 -0.1223  0.2726
  406PNCE   D4B 3638   8.058   9.410   6.679  0.0499 -0.1626 -0.0331
  406PNCE   C5B 3639   7.801   9.614   6.961 -0.2304  0.0645 -0.0775
  406PNCE   C6B 3640   7.710   9.740   7.401 -0.1749 -0.1579  0.3367
  407PNCE   AM1 3641   1.762  14.388   8.559 -0.3264 -0.0936  0.1281
  407PNCE   AM2 3642   1.935  14.176   8.437  0.0582  0.0746 -0.0235
  407PNCE   T1A 3643   1.428  14.334   8.169  0.1461 -0.0248  0.1173
  407PNCE   C2A 3644   1.373  14.488   7.770  0.0449  0.0454 -0.0815
  407PNCE   C3A 3645   1.600  14.715   7.495  0.0261 -0.1108 -0.1945
  407PNCE   C1B 3646   2.337  14.003   8.627 -0.1406  0.0878 -0.3011
  407PNCE   C2B 3647   2.795  13.847   8.623 -0.2136  0.0699 -0.0072
  407PNCE   C3B 3648   3.187  13.635   8.689  0.0637 -0.0826 -0.1320
  407PNCE   D4B 3649   3.566  13.453   8.554 -0.0743 -0.2538 -0.1365
  407PNCE   C5B 3650   3.762  13.652   8.228  0.0213 -0.0011  0.0791
  407PNCE   C6B 3651   4.190  13.577   8.030  0.1252  0.1079 -0.6399
  408XCA    COO 3652   4.845   5.878   5.235 -0.0730 -0.1637 -0.0649
  408XCA     C1 3653   5.137   6.033   5.593 -0.0626  0.0805 -0.0766
  408XCA     C2 3654   5.275   6.386   5.846  0.3010 -0.1807 -0.1127
  408XCA     C3 3655   5.241   6.634   6.251  0.1833 -0.4626  0.0148
  408XCA     C4 3656   5.320   6.832   6.594  0.1468 -0.0223  0.0082
  408XCA     C5 3657   5.640   7.049   6.735  0.0109  0.0572 -0.1691
  408XCA     C6 3658   5.984   7.136   6.943 -0.0515 -0.3072  0.0763
  409XCA    COO 3659  12.823  15.523   8.450 -0.0936  0.2041 -0.0248
  409XCA     C1 3660  12.771  15.611   7.965  0.0893 -0.0192  0.0028
  409XCA     C2 3661  12.786  15.700   7.563 -0.0590 -0.2978 -0.0946
  409XCA     C3 3662  12.729  15.983   7.083  0.0685 -0.0405 -0.0543
  409XCA     C4 3663  12.773  16.214   6.692  0.3736  0.0095 -0.2807
  409XCA     C5 3664  13.108  16.322   6.333  0.0308 -0.0292  0.0409
  409XCA     C6 3665  13.320  16.589   6.208  0.2369 -0.2445  0.0088
  410CHOL   ROH 3666  14.316   2.556   5.372 -0.0682  0.1285  0.0421
  410CHOL    R1 3667  14.332   2.706   5.611  0.0149  0.1267  0.0387
  410CHOL    R2 3668  14.440   2.604   5.844 -0.0417  0.0705  0.0452
  410CHOL    R3 3669  14.596   2.827   5.831  0.0834 -0.0173  0.0347
  410CHOL    R4 3670  14.620   2.737   6.108 -0.0969  0.0816  0.0768
  410CHOL    R5 3671  14.563   2.936   6.041  0.0422  0.0833 -0.0268
  410CHOL    C1 3672  14.871   3.023   6.249 -0.0116  0.0057  0.0853
  410CHOL    C2 3673  14.892   3.335   6.437 -0.0640 -0.3697  0.2362
  411PNCE   AM1 3674  14.363   0.188   6.191  0.1602  0.0480 -0.0018
  411PNCE   AM2 3675  14.368  -0.107   6.388 -0.2007  0.0750 -0.4009
  411PNCE   T1A 3676  14.506   0.340   5.880  0.1794  0.0183  0.1084
  411PNCE   C2A 3677  14.647   0.474   5.407  0.2825 -0.2259  0.0061
  411PNCE   C3A 3678  14.623   0.812   5.135 -0.0897 -0.1227  0.1290
  411PNCE   C1B 3679  14.151  -0.461   6.142  0.2499 -0.2376 -0.1088
  411PNCE   C2B 3680  14.070  -0.906   6.138  0.0385  0.3529 -0.1079
  411PNCE   C3B 3681  14.445  -1.202   6.335  0.0915  0.1948  0.1997
  411PNCE   D4B 3682  14.451  -1.579   6.667 -0.0695 -0.0282  0.1038
  411PNCE   C5B 3683  14.812  -1.822   6.484 -0.2049 -0.0519 -0.2056
  411PNCE   C6B 3684  15.026  -2.163   6.423 -0.1099 -0.0809 -0.1759
  412CHOL   ROH 3685   2.405   9.715   8.730  0.2969 -0.1133  0.1954
  412CHOL    R1 3686   2.301   9.495   8.586  0.1187 -0.0143  0.1678
  412CHOL    R2 3687   2.383   9.432   8.330 -0.0418  0.0372  0.0966
  412CHOL    R3 3688   2.433   9.189   8.440 -0.0959 -0.0220 -0.0108
  412CHOL    R4 3689   2.452   9.144   8.152 -0.0627  0.1038 -0.0186
  412CHOL    R5 3690   2.328   9.033   8.292 -0.0959  0.0610 -0.0912
  412CHOL    C1 3691   2.539   8.748   8.151 -0.1257  0.0870 -0.1864
  412CHOL    C2 3692   2.510   8.432   7.983 -0.1883  0.0417 -0.1188
  413CHOL   ROH 3693  12.173   0.783   8.458 -0.0987  0.3380  0.1276
  413CHOL    R1 3694  12.227   0.679   8.200  0.1555  0.1806  0.2410
  413CHOL    R2 3695  12.085   0.756   7.976  0.1842 -0.1678  0.1015
  413CHOL    R3 3696  12.332   0.811   7.878  0.1749  0.0300  0.1837
  413CHOL    R4 3697  12.173   0.742   7.642  0.3253 -0.1849  0.1379
  413CHOL    R5 3698  12.363   0.653   7.701  0.3870  0.0032  0.2391
  413CHOL    C1 3699  12.456   0.785   7.356  0.3986 -0.0092  0.2364
  413CHOL    C2 3700  12.612   0.673   7.082  0.0175 -0.1939  0.2467
  414CHOL   ROH 3701   6.581   8.633   6.896 -0.1868 -0.0466 -0.1717
  414CHOL    R1 3702   6.379   8.668   7.091 -0.0557 -0.1513 -0.0139
  414CHOL    R2 3703   6.118   8.730   7.025 -0.0424  0.1753  0.2080
  414CHOL    R3 3704   6.062   8.509   7.174 -0.1508  0.0013 -0.0841
  414CHOL    R4 3705   5.809   8.657   7.162 -0.0091  0.2866  0.3426
  414CHOL    R5 3706   5.911   8.588   7.342  0.0652 -0.0966  0.1592
  414CHOL    C1 3707   5.576   8.408   7.382 -0.0914  0.1879  0.1469
  414CHOL    C2 3708   5.235   8.372   7.503  0.1790  0.1267  0.2981
  415XCA    COO 3709   0.728   1.439   8.858 -0.2358  0.1847 -0.1181
  415XCA     C1 3710   0.892   1.648   8.577  0.1340 -0.0293  0.1398
  415XCA     C2 3711   0.949   1.525   8.083 -0.0578 -0.0862 -0.1003
  415XCA     C3 3712   0.890   1.208   7.689 -0.1488  0.2305  0.0115
  415XCA     C4 3713   1.159   0.925   7.516 -0.1962  0.0565 -0.0517
  415XCA     C5 3714   1.344   1.039   7.167 -0.1238  0.2692  0.0498
  415XCA     C6 3715   1.648   1.030   6.876  0.1694 -0.4477  0.5319
  416PNCE   AM1 3716   7.138   8.436   9.188 -0.0561  0.1093  0.0516
  416PNCE   AM2 3717   7.266   8.181   9.179 -0.2179 -0.0990  0.3155
  416PNCE   T1A 3718   7.295   8.564   8.851  0.1055  0.1758  0.1593
  416PNCE   C2A 3719   7.133   8.681   8.429  0.0287 -0.2086 -0.4405
  416PNCE   C3A 3720   7.131   8.638   8.002  0.2019  0.0854 -0.1401
  416PNCE   C1B 3721   7.161   8.070   8.812 -0.1125  0.3610  0.2223
  416PNCE   C2B 3722   7.175   8.147   8.454 -0.1834  0.0968 -0.1196
  416PNCE   C3B 3723   7.356   8.173   8.122  0.0676 -0.2603 -0.0825
  416PNCE   D4B 3724   7.201   8.180   7.764  0.2632  0.0110 -0.0447
  416PNCE   C5B 3725   6.775   7.953   7.569  0.0457  0.0241 -0.2376
  416PNCE   C6B 3726   6.386   7.816   7.334 -0.3980 -0.0508 -0.1616
  417CHOL   ROH 3727   9.623  13.499   4.728  0.0733  0.0836 -0.2128
  417CHOL    R1 3728   9.766  13.601   4.951 -0.0379 -0.1110 -0.0502
  417CHOL    R2 3729   9.920  13.830   4.936  0.0748 -0.1774  0.1929
  417CHOL    R3 3730   9.765  13.908   5.146 -0.0323 -0.2239  0.1340
  417CHOL    R4 3731   9.958  14.125   5.112 -0.0424 -0.1793  0.2242
  417CHOL    R5 3732   9.918  14.015   5.296 -0.1033 -0.2071  0.2065
  417CHOL    C1 3733   9.836  14.369   5.412 -0.2112 -0.2241  0.1871
  417CHOL    C2 3734  10.036  14.426   5.694  0.2027  0.0995 -0.1556
  418CHOL   ROH 3735   1.738   0.829   4.944 -0.1490  0.0934 -0.0846
  418CHOL    R1 3736   1.567   0.782   5.165 -0.1209  0.1027 -0.0605
  418CHOL    R2 3737   1.638   0.843   5.425 -0.0671  0.0657 -0.0664
  418CHOL    R3 3738   1.405   0.982   5.421 -0.0433  0.1069 -0.0141
  418CHOL    R4 3739   1.511   1.024   5.691 -0.0741 -0.0806  0.0306
  418CHOL    R5 3740   1.313   0.951   5.640 -0.0800 -0.0165 -0.0458
  418CHOL    C1 3741   1.219   1.260   5.842 -0.0559 -0.1271  0.1361
  418CHOL    C2 3742   1.039   1.398   6.147  0.0640  0.1444 -0.2527
  419XCA    COO 3743  10.203   8.004   4.948  0.0441 -0.1529  0.0560
  419XCA     C1 3744  10.158   7.732   5.345  0.0328 -0.1746  0.1310
  419XCA     C2 3745  10.077   7.398   5.496  0.1184  0.0674  0.1546
  419XCA     C3 3746  10.217   7.265   5.923 -0.0230  0.1520  0.2647
  419XCA     C4 3747  10.114   6.969   6.258  0.0338 -0.3877 -0.1981
  419XCA     C5 3748  10.249   6.610   6.297 -0.1878 -0.2409 -0.1499
  419XCA     C6 3749  10.582   6.320   6.170 -0.2281  0.2226 -0.4829
  420PNCE   AM1 3750   6.691   0.867   7.908 -0.1312  0.0339 -0.1457
  420PNCE   AM2 3751   6.972   0.749   8.205  0.0009 -0.1114  0.0328
  420PNCE   T1A 3752   6.740   0.789   7.478 -0.3726 -0.1996  0.0707
  420PNCE   C2A 3753   6.554   0.951   7.113  0.2228  0.0155 -0.1226
  420PNCE   C3A 3754   6.234   1.128   6.751  0.2168  0.0641 -0.4382
  420PNCE   C1B 3755   7.137   0.611   7.773  0.3795 -0.0766  0.1453
  420PNCE   C2B 3756   7.231   0.695   7.288 -0.0464  0.1256 -0.0672
  420PNCE   C3B 3757   6.962   0.788   6.934  0.2484  0.1563  0.0129
  420PNCE   D4B 3758   6.721   0.969   6.629 -0.2282 -0.2377 -0.3367
  420PNCE   C5B 3759   6.652   1.373   6.750 -0.1254 -0.3261 -0.0355
  420PNCE   C6B 3760   6.608   1.669   6.468 -0.1437  0.0399 -0.1641
  421CHOL   ROH 3761   0.910   7.250   9.488  0.0370  0.0403  0.0031
  421CHOL    R1 3762   1.114   7.271   9.293  0.1692 -0.1873  0.1110
  421CHOL    R2 3763   1.188   7.060   9.131 -0.2845 -0.1646 -0.1505
  421CHOL    R3 3764   1.139   7.238   8.932  0.2100  0.2431  0.0707
  421CHOL    R4 3765   1.265   7.009   8.798 -0.6453 -0.0657 -0.2526
  421CHOL    R5 3766   1.328   7.217   8.786  0.0717 -0.2509 -0.0499
  421CHOL    C1 3767   1.264   7.146   8.417 -0.3912  0.3746 -0.1045
  421CHOL    C2 3768   1.333   7.232   8.088 -0.0068  0.2648  0.1616
  422PNCE   AM1 3769  10.706  10.163   8.343 -0.1823  0.0189  0.3206
  422PNCE   AM2 3770  10.631  10.424   8.255  0.1858  0.0405 -0.0914
  422PNCE   T1A 3771  10.735  10.083   7.895 -0.5178 -0.6004  0.0190
  422PNCE   C2A 3772  10.916   9.708   7.592  0.2888 -0.0148 -0.2202
  422PNCE   C3A 3773  10.938   9.454   7.294  0.0143  0.1387 -0.0992
  422PNCE   C1B 3774  10.439  10.514   7.803 -0.1386  0.1350  0.0348
  422PNCE   C2B 3775  10.250  10.527   7.430 -0.0887  0.0023  0.1385
  422PNCE   C3B 3776   9.875  10.400   7.171 -0.0690 -0.1744 -0.0740
  422PNCE   D4B 3777   9.534  10.558   7.409  0.1544  0.1878  0.0459
  422PNCE   C5B 3778   9.436  10.932   7.522  0.0940 -0.1226 -0.4234
  422PNCE   C6B 3779   9.492  11.227   7.829  0.0726 -0.1424 -0.2394
  423PNCE   AM1 3780   9.011   3.414   8.436  0.0352 -0.2633 -0.1137
  423PNCE   AM2 3781   9.281   3.368   8.344  0.1379  0.2005 -0.1854
  423PNCE   T1A 3782   8.865   3.300   7.958  0.0153 -0.0575  0.1045
  423PNCE   C2A 3783   9.037   3.337   7.504 -0.0342  0.0157  0.0489
  423PNCE   C3A 3784   9.016   3.371   7.040 -0.1068 -0.0068  0.1027
  423PNCE   C1B 3785   9.321   3.481   7.921  0.0716 -0.1144 -0.2187
  423PNCE   C2B 3786   9.242   3.753   7.574 -0.2556 -0.1008  0.3410
  423PNCE   C3B 3787   9.046   3.819   7.232  0.1011  0.1711 -0.4667
  423PNCE   D4B 3788   8.918   4.074   7.060 -0.0782  0.0223  0.0294
  423PNCE   C5B 3789   8.975   4.439   6.778  0.1917  0.0295  0.1969
  423PNCE   C6B 3790   8.795   4.696   6.372  0.1167 -0.0074 -0.0768
  424CHOL   ROH 3791   9.013  14.867   8.402 -0.4018  0.1166  0.1214
  424CHOL    R1 3792   8.882  15.028   8.210 -0.2301  0.1031 -0.0101
  424CHOL    R2 3793   8.979  15.065   7.955 -0.1212 -0.1020  0.0004
  424CHOL    R3 3794   8.731  14.981   7.882 -0.1557  0.0272 -0.0338
  424CHOL    R4 3795   8.789  15.207   7.703 -0.0378  0.0372  0.0149
  424CHOL    R5 3796   8.613  15.183   7.830 -0.0582  0.0935 -0.0019
  424CHOL    C1 3797   8.446  15.210   7.488 -0.0217  0.2397 -0.0088
  424CHOL    C2 3798   8.163  15.368   7.331 -0.2270 -0.1945  0.0547
  425PNCE   AM1 3799   2.414   4.639   5.447 -0.1734  0.2465 -0.0300
  425PNCE   AM2 3800   2.591   4.491   5.132  0.1521 -0.0844  0.0898
  425PNCE   T1A 3801   2.501   4.611   5.858 -0.0337 -0.1545 -0.2272
  425PNCE   C2A 3802   2.416   4.547   6.331 -0.1250 -0.1545  0.0552
  425PNCE   C3A 3803   2.625   4.284   6.656 -0.1265 -0.1936 -0.0590
  425PNCE   C1B 3804   2.980   4.535   5.331  0.0198  0.2072  0.5234
  425PNCE   C2B 3805   2.914   4.332   5.727  0.2030  0.0588 -0.0340
  425PNCE   C3B 3806   2.902   4.397   6.172 -0.1787 -0.2799  0.0396
  425PNCE   D4B 3807   2.838   4.772   6.426  0.2404 -0.1094 -0.0320
  425PNCE   C5B 3808   3.033   5.244   6.302  0.1920  0.0000 -0.1949
  425PNCE   C6B 3809   3.004   5.556   6.535  0.1135  0.0278 -0.2756
  426PNCE   AM1 3810  10.593   4.042   7.971  0.1765  0.5429 -0.1665
  426PNCE   AM2 3811  10.518   4.003   8.292  0.2437 -0.2324  0.3347
  426PNCE   T1A 3812  10.698   4.126   7.535 -0.0042 -0.1615 -0.0427
  426PNCE   C2A 3813  10.880   4.404   7.190  0.1567  0.1151  0.2196
  426PNCE   C3A 3814  11.100   4.734   6.839  0.0188  0.3022 -0.1358
  426PNCE   C1B 3815  10.255   4.385   8.105  0.0923 -0.2860  0.0909
  426PNCE   C2B 3816  10.001   4.776   8.203  0.0218  0.0131  0.0633
  426PNCE   C3B 3817   9.776   5.013   7.906  0.0692  0.0844  0.0424
  426PNCE   D4B 3818   9.485   5.215   7.928 -0.0505 -0.0075  0.0837
  426PNCE   C5B 3819   9.288   5.284   8.276 -0.1883 -0.0751 -0.0916
  426PNCE   C6B 3820   8.978   5.477   8.588 -0.2425  0.0666  0.1613
  427PNCE   AM1 3821  14.922  11.646   8.624  0.0241 -0.0530 -0.1510
  427PNCE   AM2 3822  15.140  11.592   8.879 -0.1085  0.0952 -0.2585
  427PNCE   T1A 3823  14.696  11.813   8.294 -0.1524 -0.1460  0.0393
  427PNCE   C2A 3824  14.561  11.800   7.874 -0.2367 -0.2621  0.3038
  427PNCE   C3A 3825  14.585  11.684   7.463 -0.0678 -0.0314 -0.1060
  427PNCE   C1B 3826  15.354  11.390   8.572 -0.0917  0.1991 -0.1216
  427PNCE   C2B 3827  15.654  11.267   8.272 -0.1173  0.0635 -0.1068
  427PNCE   C3B 3828  15.814  11.172   7.769 -0.0524 -0.3315  0.0188
  427PNCE   D4B 3829  15.892  11.306   7.425  0.1410 -0.3495  0.0372
  427PNCE   C5B 3830  15.524  11.409   7.253 -0.2371 -0.1724 -0.1990
  427PNCE   C6B 3831  15.359  11.319   6.928  0.2316  0.0512 -0.1883
  428PNCE   AM1 3832   0.631  12.303   7.940  0.0386 -0.4280 -0.1196
  428PNCE   AM2 3833   0.914  12.572   7.938 -0.0210 -0.2031 -0.0271
  428PNCE   T1A 3834   0.627  12.063   7.536  0.3388  0.2565  0.0649
  428PNCE   C2A 3835   0.814  12.074   7.112  0.0223 -0.4204 -0.1217
  428PNCE   C3A 3836   0.559  12.046   6.675 -0.3461  0.1736  0.2366
  428PNCE   C1B 3837   0.930  12.479   7.502 -0.4035  0.4024  0.4614
  428PNCE   C2B 3838   0.886  12.604   7.088 -0.4669  0.1864 -0.0925
  428PNCE   C3B 3839   1.200  12.619   6.758 -0.2220  0.1926  0.0952
  428PNCE   D4B 3840   1.272  13.035   6.515  0.2163 -0.0616  0.1695
  428PNCE   C5B 3841   1.078  13.364   6.202 -0.0395  0.0946  0.1099
  428PNCE   C6B 3842   0.727  13.473   6.109  0.0363 -0.2040 -0.1324
  429CHOL   ROH 3843   2.179   4.568   8.863 -0.0634 -0.0353  0.1798
  429CHOL    R1 3844   1.944   4.653   8.730 -0.0604  0.0024  0.1968
  429CHOL    R2 3845   1.938   4.709   8.459 -0.0448  0.1155  0.2150
  429CHOL    R3 3846   1.734   4.530   8.460 -0.0275  0.0966  0.1298
  429CHOL    R4 3847   1.720   4.658   8.197  0.1383  0.0026  0.0830
  429CHOL    R5 3848   1.558   4.639   8.341  0.0427  0.0342 -0.0273
  429CHOL    C1 3849   1.401   4.459   8.044  0.2612 -0.0809 -0.0738
  429CHOL    C2 3850   1.644   4.142   7.818 -0.0162 -0.2380  0.0811
  430PNCE   AM1 3851   1.483   9.203   9.000 -0.1784  0.1129  0.5081
  430PNCE   AM2 3852   1.554   9.397   9.330  0.0643 -0.2754 -0.0542
  430PNCE   T1A 3853   1.429   9.139   8.638  0.0155  0.0940 -0.0275
  430PNCE   C2A 3854   1.417   9.180   8.272 -0.1834 -0.0553  0.0842
  430PNCE   C3A 3855   1.574   9.341   7.849 -0.1695  0.0184 -0.3701
  430PNCE   C1B 3856   1.765   9.574   8.941  0.0225  0.1267 -0.0758
  430PNCE   C2B 3857   1.890   9.776   8.514 -0.2989  0.1393  0.0178
  430PNCE   C3B 3858   1.796  10.190   8.342 -0.0758 -0.2172  0.0403
  430PNCE   D4B 3859   1.481  10.280   8.054 -0.3755 -0.2896 -0.0353
  430PNCE   C5B 3860   1.340  10.328   7.651  0.1053  0.1663  0.0397
  430PNCE   C6B 3861   1.294  10.168   7.267 -0.2368  0.0266 -0.0036
  431PNCE   AM1 3862  14.346  11.606   8.784 -0.1792 -0.0029  0.0980
  431PNCE   AM2 3863  14.529  11.339   8.527 -0.1494  0.0960 -0.2387
  431PNCE   T1A 3864  14.285  11.899   8.502 -0.0947 -0.1182 -0.0685
  431PNCE   C2A 3865  14.222  12.093   8.228 -0.1951 -0.2563  0.0760
  431PNCE   C3A 3866  14.384  12.287   7.824 -0.1000  0.1235  0.1511
  431PNCE   C1B 3867  14.474  11.305   8.085 -0.1456  0.1555  0.1708
  431PNCE   C2B 3868  14.414  11.308   7.704 -0.2847  0.1926 -0.1981
  431PNCE   C3B 3869  14.515  11.139   7.323 -0.1835  0.1011  0.1863
  431PNCE   D4B 3870  14.837  11.373   7.001 -0.3412  0.0280  0.4455
  431PNCE   C5B 3871  15.036  11.492   6.588 -0.0242 -0.0871 -0.2562
  431PNCE   C6B 3872  15.500  11.551   6.465  0.2429  0.0803  0.0609
  432XCA    COO 3873   3.651   0.943   8.771  0.0842  0.2254  0.0875
  432XCA     C1 3874   3.488   0.629   8.965 -0.1512  0.3775  0.3318
  432XCA     C2 3875   3.388   0.238   8.796  0.0490 -0.4813 -0.0810
  432XCA     C3 3876   3.355   0.042   8.475 -0.1956  0.2024 -0.1712
  432XCA     C4 3877   3.172   0.012   8.025 -0.2017 -0.2846 -0.0938
  432XCA     C5 3878   3.152  -0.005   7.572 -0.0537 -0.0480  0.2439
  432XCA     C6 3879   3.150   0.202   7.169 -0.2988  0.0563  0.1046
  433XCA    COO 3880  10.299   3.124   4.539 -0.2215 -0.3106 -0.0252
  433XCA     C1 3881  10.030   3.229   4.938  0.0427  0.1133  0.1683
  433XCA     C2 3882   9.921   2.977   5.231 -0.0978  0.3738  0.0148
  433XCA     C3 3883  10.030   3.044   5.666 -0.0945  0.0357 -0.1362
  433XCA     C4 3884  10.183   3.267   6.078  0.2152 -0.0628 -0.3206
  433XCA     C5 3885  10.011   3.095   6.506  0.3300 -0.2140 -0.0218
  433XCA     C6 3886   9.988   3.080   6.995  0.1143  0.1147  0.0051
  434CHOL   ROH 3887  11.662   1.840   5.216  0.2062 -0.1329 -0.0850
  434CHOL    R1 3888  11.667   1.572   5.308  0.1793 -0.1353 -0.0912
  434CHOL    R2 3889  11.855   1.481   5.488  0.1306 -0.1417 -0.0449
  434CHOL    R3 3890  11.636   1.403   5.628  0.0934 -0.1447 -0.1041
  434CHOL    R4 3891  11.862   1.291   5.777  0.0752  0.1173  0.1308
  434CHOL    R5 3892  11.689   1.181   5.703  0.1805 -0.0502  0.1236
  434CHOL    C1 3893  11.660   1.107   6.076  0.0079  0.2654  0.1776
  434CHOL    C2 3894  11.809   0.742   6.076 -0.0581 -0.1200  0.0736
  435CHOL   ROH 3895   0.158   6.368   5.196 -0.1447 -0.1219 -0.0282
  435CHOL    R1 3896   0.295   6.359   5.443 -0.0912 -0.1632 -0.0582
  435CHOL    R2 3897   0.247   6.540   5.647  0.0777 -0.0864 -0.0799
  435CHOL    R3 3898   0.206   6.314   5.793 -0.0409 -0.0316 -0.0287
  435CHOL    R4 3899   0.279   6.519   5.990 -0.0312 -0.0036 -0.0651
  435CHOL    R5 3900   0.373   6.324   5.965 -0.0898 -0.0412  0.0173
  435CHOL    C1 3901   0.259   6.295   6.327 -0.2059  0.0960 -0.0083
  435CHOL    C2 3902   0.176   6.220   6.720 -0.0949 -0.1636 -0.2454
  436XCA    COO 3903   6.790   5.902   5.054  0.0040  0.1064 -0.0810
  436XCA     C1 3904   7.162   6.193   5.291 -0.1491 -0.3645 -0.1303
  436XCA     C2 3905   7.325   5.969   5.650 -0.0202  0.1574 -0.2027
  436XCA     C3 3906   7.275   5.702   5.934 -0.2116 -0.0842  0.1141
  436XCA     C4 3907   7.043   5.521   6.277  0.1282  0.3832  0.1650
  436XCA     C5 3908   6.795   5.617   6.543 -0.0253  0.2787  0.0208
  436XCA     C6 3909   6.460   5.561   6.726  0.2427  0.3228  0.1735
  437CHOL   ROH 3910   7.191   2.051   7.793  0.0064 -0.2314 -0.2275
  437CHOL    R1 3911   7.334   2.151   7.571 -0.0448  0.0141 -0.1529
  437CHOL    R2 3912   7.261   2.096   7.310  0.0738  0.0447 -0.1911
  437CHOL    R3 3913   7.264   2.367   7.287 -0.2053  0.0617 -0.0793
  437CHOL    R4 3914   7.193   2.270   7.019  0.1888  0.0748 -0.2005
  437CHOL    R5 3915   7.356   2.407   7.069 -0.0120  0.2442  0.0288
  437CHOL    C1 3916   7.157   2.625   6.828 -0.0064  0.1082 -0.1010
  437CHOL    C2 3917   6.928   2.856   6.722  0.1575 -0.1503  0.0636
  438PNCE   AM1 3918  15.073   6.861   9.383 -0.1046  0.0314  0.1316
  438PNCE   AM2 3919  15.294   6.690   9.121 -0.0088  0.1955  0.2960
  438PNCE   T1A 3920  15.222   7.259   9.268  0.1949  0.0392  0.0082
  438PNCE   C2A 3921  15.277   7.614   9.039 -0.1379  0.1882 -0.1039
  438PNCE   C3A 3922  15.001   7.832   8.960 -0.0824 -0.4261  0.1078
  438PNCE   C1B 3923  15.260   6.989   8.744 -0.1429  0.0483  0.1232
  438PNCE   C2B 3924  15.231   7.015   8.339  0.2048 -0.0600 -0.1741
  438PNCE   C3B 3925  15.131   7.003   7.947  0.2196 -0.4632  0.1288
  438PNCE   D4B 3926  15.222   6.805   7.611  0.0413 -0.3062 -0.1057
  438PNCE   C5B 3927  14.875   6.669   7.461 -0.1436 -0.3085 -0.0861
  438PNCE   C6B 3928  14.801   6.473   7.171  0.0839  0.0223 -0.5755
  439XCA    COO 3929  10.988   7.368   4.571  0.2424  0.0798  0.2472
  439XCA     C1 3930  10.646   7.659   4.860 -0.0576  0.1233 -0.3499
  439XCA     C2 3931  10.638   7.817   5.216  0.1685 -0.0742  0.0575
  439XCA     C3 3932  10.495   7.993   5.651  0.1490  0.1451  0.0564
  439XCA     C4 3933  10.845   8.229   5.867 -0.3403 -0.2252 -0.0692
  439XCA     C5 3934  11.062   8.503   5.753 -0.2816  0.1759 -0.0877
  439XCA     C6 3935  11.438   8.799   5.829 -0.0415  0.0305 -0.1132
  440CHOL   ROH 3936  12.157  12.240   7.855 -0.1645 -0.1514 -0.3832
  440CHOL    R1 3937  12.430  12.191   7.797 -0.0867  0.0047 -0.1662
  440CHOL    R2 3938  12.511  12.035   7.584  0.1755 -0.0234 -0.0571
  440CHOL    R3 3939  12.657  12.255   7.520  0.0710  0.0530 -0.0243
  440CHOL    R4 3940  12.735  12.056   7.321  0.3120  0.0747  0.0663
  440CHOL    R5 3941  12.868  12.169   7.450  0.1634  0.1835  0.1110
  440CHOL    C1 3942  13.001  12.275   7.108  0.2935  0.2036  0.1689
  440CHOL    C2 3943  13.093  12.077   6.787 -0.0180  0.0785  0.1733
  441CHOL   ROH 3944   1.591   2.448   4.711 -0.0239 -0.1051 -0.0236
  441CHOL    R1 3945   1.454   2.306   4.913 -0.2525  0.0744 -0.0499
  441CHOL    R2 3946   1.580   2.209   5.139 -0.3727 -0.2877 -0.1345
  441CHOL    R3 3947   1.387   2.350   5.268 -0.0562  0.0477 -0.0078
  441CHOL    R4 3948   1.523   2.199   5.480 -0.2061 -0.2342 -0.1033
  441CHOL    R5 3949   1.309   2.202   5.439 -0.2342  0.1575  0.0112
  441CHOL    C1 3950   1.308   2.326   5.799  0.1879  0.1118  0.0338
  441CHOL    C2 3951   1.555   2.310   6.018  0.2733  0.0912 -0.0130
  442CHOL   ROH 3952   3.229  12.125   7.080  0.1269 -0.0167 -0.0178
  442CHOL    R1 3953   2.995  12.211   6.945  0.1297 -0.0111 -0.0189
  442CHOL    R2 3954   2.747  12.097   6.990  0.1085  0.0680  0.0598
  442CHOL    R3 3955   2.673  12.354   7.039  0.1773  0.1055 -0.0306
  442CHOL    R4 3956   2.422  12.213   6.987  0.1161  0.0983  0.2556
  442CHOL    R5 3957   2.492  12.394   6.888  0.0571  0.0343  0.0905
  442CHOL    C1 3958   2.163  12.522   7.031  0.1851  0.1514  0.2847
  442CHOL    C2 3959   1.920  12.692   7.244  0.1983 -0.1544  0.1168
  443CHOL   ROH 3960  10.027  15.068   8.317  0.1988  0.2006  0.0258
  443CHOL    R1 3961   9.936  15.108   8.051  0.1883  0.2571  0.0360
  443CHOL    R2 3962  10.108  15.111   7.834  0.1582  0.0736 -0.0009
  443CHOL    R3 3963   9.940  14.919   7.740 -0.0389  0.2166  0.0585
  443CHOL    R4 3964  10.120  14.975   7.517  0.0774 -0.1157  0.0768
  443CHOL    R5 3965   9.903  14.979   7.512  0.0871  0.1327  0.0204
  443CHOL    C1 3966   9.970  14.716   7.243 -0.1547 -0.0918  0.1778
  443CHOL    C2 3967   9.971  14.692   6.853  0.0304  0.1532  0.0701
  444CHOL   ROH 3968  10.800  11.482   7.306  0.1518 -0.3084 -0.0810
  444CHOL    R1 3969  10.659  11.237   7.301  0.1019 -0.2796 -0.0772
  444CHOL    R2 3970  10.437  11.197   7.142 -0.0508 -0.1573  0.1024
  444CHOL    R3 3971  10.579  10.983   7.053 -0.1698 -0.1410 -0.1361
  444CHOL    R4 3972  10.298  10.898   7.036 -0.1969 -0.1612  0.2980
  444CHOL    R5 3973  10.460  10.793   7.138 -0.0247 -0.1559  0.0409
  444CHOL    C1 3974  10.351  10.524   6.891 -0.3939 -0.1480  0.1880
  444CHOL    C2 3975  10.058  10.297   6.697 -0.2117  0.1530 -0.0434
  445CHOL   ROH 3976   0.806  10.174   7.111 -0.2361  0.1966 -0.1390
  445CHOL    R1 3977   0.628   9.976   7.013 -0.1912  0.0752  0.0255
  445CHOL    R2 3978   0.713   9.760   6.863 -0.1702  0.0924  0.0277
  445CHOL    R3 3979   0.582   9.618   7.055  0.0274  0.0568  0.1419
  445CHOL    R4 3980   0.614   9.430   6.831 -0.2689  0.1197  0.0285
  445CHOL    R5 3981   0.428   9.481   6.932 -0.1482  0.1262  0.2709
  445CHOL    C1 3982   0.435   9.105   6.992 -0.1410  0.1021  0.1363
  445CHOL    C2 3983   0.137   8.907   6.977  0.1234  0.1646 -0.2576
  446XCA    COO 3984   6.407   0.430   8.265  0.1544  0.2267  0.2818
  446XCA     C1 3985   5.940   0.419   8.079 -0.1717  0.1318  0.0079
  446XCA     C2 3986   5.503   0.116   8.064  0.0342  0.0906  0.1082
  446XCA     C3 3987   5.123  -0.147   8.054 -0.0892 -0.0874  0.0789
  446XCA     C4 3988   4.863  -0.300   7.771  0.1562  0.0041 -0.0302
  446XCA     C5 3989   4.364  -0.428   7.701 -0.2813  0.0692 -0.0356
  446XCA     C6 3990   4.126  -0.126   7.452  0.2079 -0.0807  0.2406
  447PNCE   AM1 3991  13.604  10.282   8.857  0.1150  0.1013 -0.0264
  447PNCE   AM2 3992  13.780  10.229   9.224  0.0191 -0.1685  0.3147
  447PNCE   T1A 3993  13.872  10.226   8.463 -0.0159 -0.1026  0.1899
  447PNCE   C2A 3994  13.920  10.406   8.015 -0.0005 -0.0764  0.0330
  447PNCE   C3A 3995  13.766  10.568   7.640 -0.0817  0.2146  0.0946
  447PNCE   C1B 3996  14.112  10.250   8.920  0.0841  0.2865  0.2450
  447PNCE   C2B 3997  14.433  10.343   8.659 -0.1137 -0.0773  0.1337
  447PNCE   C3B 3998  14.388  10.289   8.186 -0.0193 -0.4015  0.0043
  447PNCE   D4B 3999  14.357  10.233   7.719  0.0411 -0.1341 -0.2856
  447PNCE   C5B 4000  14.300   9.860   7.629  0.1487 -0.1842 -0.1976
  447PNCE   C6B 4001  14.219   9.535   7.321  0.0568  0.0419  0.0251
  448PNCE   AM1 4002  12.712   8.406   8.230 -0.1909 -0.2519  0.1227
  448PNCE   AM2 4003  12.909   8.668   8.350 -0.1028  0.2396 -0.4541
  448PNCE   T1A 4004  12.834   8.000   7.884  0.3627  0.2425  0.0385
  448PNCE   C2A 4005  12.689   7.673   7.481 -0.0004 -0.2947 -0.1982
  448PNCE   C3A 4006  12.589   7.307   7.234 -0.4735 -0.1707 -0.0484
  448PNCE   C1B 4007  12.663   8.785   7.901 -0.1084  0.0675 -0.1826
  448PNCE   C2B 4008  12.564   9.175   7.533 -0.0008 -0.2497 -0.1688
  448PNCE   C3B 4009  12.788   9.442   7.255  0.3921 -0.4705  0.0287
  448PNCE   D4B 4010  13.211   9.615   7.266  0.1028 -0.1931 -0.2104
  448PNCE   C5B 4011  13.290   9.778   6.924  0.0409 -0.0750 -0.0038
  448PNCE   C6B 4012  13.146  10.029   6.579 -0.0412 -0.2711 -0.0999
  449CHOL   ROH 4013   7.431   7.058   5.288 -0.1760 -0.0855 -0.0719
  449CHOL    R1 4014   7.555   6.966   5.525 -0.1142  0.0282 -0.0600
  449CHOL    R2 4015   7.598   7.130   5.743 -0.2348  0.0820 -0.0777
  449CHOL    R3 4016   7.464   6.934   5.876 -0.0968 -0.0001 -0.0574
  449CHOL    R4 4017   7.553   7.118   6.086 -0.1166  0.0227 -0.0639
  449CHOL    R5 4018   7.589   6.903   6.078 -0.0134  0.0381 -0.1005
  449CHOL    C1 4019   7.401   6.927   6.409  0.0819 -0.0888 -0.0368
  449CHOL    C2 4020   7.606   6.962   6.758 -0.1237 -0.2588 -0.0866
  450PNCE   AM1 4021   2.949  10.442   8.885  0.1500  0.0282 -0.1513
  450PNCE   AM2 4022   2.984  10.263   9.137 -0.0457 -0.0570 -0.2276
  450PNCE   T1A 4023   2.694  10.327   8.485 -0.0272 -0.0252 -0.0874
  450PNCE   C2A 4024   2.743  10.058   8.089 -0.1935  0.0547  0.1252
  450PNCE   C3A 4025   2.513   9.695   7.884 -0.1617  0.1515  0.0545
  450PNCE   C1B 4026   2.877   9.962   8.761 -0.2322  0.1328  0.0785
  450PNCE   C2B 4027   3.153   9.906   8.351  0.3368  0.2989  0.0037
  450PNCE   C3B 4028   3.391  10.019   8.076  0.1876  0.3530  0.1133
  450PNCE   D4B 4029   3.295  10.183   7.672  0.0152  0.0955 -0.0741
  450PNCE   C5B 4030   2.888  10.202   7.581 -0.0373  0.2685  0.0249
  450PNCE   C6B 4031   2.669  10.310   7.261  0.1568 -0.0389  0.1478
  451PNCE   AM1 4032   0.511   9.435   9.139  0.0005  0.0888  0.0543
  451PNCE   AM2 4033   0.247   9.420   9.362  0.1464 -0.1528  0.4475
  451PNCE   T1A 4034   0.466   9.516   8.766  0.1271 -0.0628 -0.2090
  451PNCE   C2A 4035   0.540   9.808   8.343 -0.2197 -0.1159  0.2567
  451PNCE   C3A 4036   0.544   9.924   8.005 -0.1829  0.2511 -0.1760
  451PNCE   C1B 4037  -0.033   9.479   9.089 -0.1131 -0.2392  0.0555
  451PNCE   C2B 4038  -0.408   9.498   8.784 -0.2194  0.0480 -0.0057
  451PNCE   C3B 4039  -0.567   9.483   8.389 -0.1481  0.1754 -0.0031
  451PNCE   D4B 4040  -0.985   9.417   8.029  0.0577  0.3699  0.0143
  451PNCE   C5B 4041  -0.998   9.398   7.689 -0.1567  0.0311  0.3309
  451PNCE   C6B 4042  -1.229   9.187   7.349  0.2385 -0.0378 -0.0586
  452PNCE   AM1 4043   4.852   8.891   9.483  0.0862  0.2944  0.0811
  452PNCE   AM2 4044   4.579   9.059   9.411  0.4464  0.0674 -0.2347
  452PNCE   T1A 4045   4.975   8.498   9.182 -0.2292 -0.0983  0.2538
  452PNCE   C2A 4046   4.922   8.332   8.848  0.0786 -0.1544  0.0817
  452PNCE   C3A 4047   4.984   8.219   8.347 -0.0654  0.0354 -0.2191
  452PNCE   C1B 4048   4.529   8.770   9.043 -0.1377 -0.2541 -0.1184
  452PNCE   C2B 4049   4.388   8.808   8.635  0.1079  0.0016  0.2451
  452PNCE   C3B 4050   4.061   8.874   8.352 -0.3526  0.0045 -0.0141
  452PNCE   D4B 4051   4.005   9.107   7.962 -0.0705  0.1391  0.0439
  452PNCE   C5B 4052   4.366   9.361   7.843 -0.1789 -0.2542  0.1646
  452PNCE   C6B 4053   4.579   9.774   7.814  0.1234  0.1175 -0.1819
  453PNCE   AM1 4054   2.620  13.426   4.625  0.0735 -0.2445 -0.1324
  453PNCE   AM2 4055   2.251  13.353   4.529  0.1943  0.4363  0.1702
  453PNCE   T1A 4056   2.667  13.645   4.939 -0.4756  0.0407  0.3485
  453PNCE   C2A 4057   2.877  13.659   5.384 -0.0447  0.1721  0.0042
  453PNCE   C3A 4058   2.834  13.508   5.909  0.1337 -0.1339  0.1289
  453PNCE   C1B 4059   2.081  13.308   4.927  0.5139 -0.0851  0.3284
  453PNCE   C2B 4060   2.060  13.305   5.359 -0.0877  0.4049 -0.1363
  453PNCE   C3B 4061   1.746  13.422   5.715  0.1191  0.0018 -0.0482
  453PNCE   D4B 4062   1.270  13.495   5.763 -0.1768  0.0834 -0.0642
  453PNCE   C5B 4063   1.228  13.917   5.817  0.0404  0.0905  0.0019
  453PNCE   C6B 4064   0.892  14.274   5.808  0.2116 -0.0798 -0.2300
  454CHOL   ROH 4065  10.584   6.588   4.974  0.0572  0.0537  0.1447
  454CHOL    R1 4066  10.521   6.686   5.232  0.0023  0.0470  0.1348
  454CHOL    R2 4067  10.678   6.633   5.453  0.0173  0.1337  0.1485
  454CHOL    R3 4068  10.678   6.903   5.478 -0.1034  0.1360  0.1234
  454CHOL    R4 4069  10.695   6.804   5.753 -0.1194  0.1723  0.1342
  454CHOL    R5 4070  10.549   6.945   5.675 -0.1620  0.1014  0.0905
  454CHOL    C1 4071  10.705   7.158   5.950 -0.3124  0.1969  0.1022
  454CHOL    C2 4072  10.740   7.153   6.282 -0.0336 -0.2410 -0.3374
  455PNCE   AM1 4073   6.135   3.368   8.367  0.2413  0.1150  0.2821
  455PNCE   AM2 4074   5.977   3.416   8.588  0.2214 -0.1335 -0.0276
  455PNCE   T1A 4075   6.067   3.630   8.066 -0.0576 -0.1580  0.2640
  455PNCE   C2A 4076   6.022   3.712   7.671  0.0311  0.0017  0.0479
  455PNCE   C3A 4077   6.044   4.089   7.383 -0.3991  0.1644 -0.1486
  455PNCE   C1B 4078   5.623   3.342   8.164 -0.1487  0.1701  0.1572
  455PNCE   C2B 4079   5.538   3.598   7.798 -0.1029  0.1066  0.2710
  455PNCE   C3B 4080   5.636   3.837   7.348 -0.1546 -0.0939  0.1020
  455PNCE   D4B 4081   5.441   3.852   6.946 -0.0067  0.2854 -0.2123
  455PNCE   C5B 4082   4.904   3.800   6.890  0.0595  0.0202  0.0063
  455PNCE   C6B 4083   4.469   4.006   6.705 -0.0643  0.1191  0.1788
  456PNCE   AM1 4084  12.351   4.844   8.285 -0.1116  0.2253  0.1574
  456PNCE   AM2 4085  12.200   4.500   8.425 -0.0960  0.0879  0.0651
  456PNCE   T1A 4086  12.544   5.059   8.003 -0.1800 -0.1785  0.3660
  456PNCE   C2A 4087  12.671   5.342   7.725  0.0018  0.0402  0.2969
  456PNCE   C3A 4088  12.683   5.842   7.816 -0.0485  0.2119  0.3333
  456PNCE   C1B 4089  12.130   4.560   7.993 -0.3507  0.0474  0.0533
  456PNCE   C2B 4090  12.364   4.723   7.572  0.3365 -0.1727  0.0763
  456PNCE   C3B 4091  12.496   4.920   7.224  0.2513 -0.1371  0.0428
  456PNCE   D4B 4092  12.381   5.083   6.928  0.2444 -0.1268 -0.1152
  456PNCE   C5B 4093  12.783   5.021   6.800 -0.2700 -0.0866 -0.1368
  456PNCE   C6B 4094  13.027   4.899   6.403 -0.0184  0.0509 -0.0006
  457PNCE   AM1 4095  14.576  15.717   8.224  0.2504 -0.0208  0.2445
  457PNCE   AM2 4096  14.559  15.973   8.360  0.0491 -0.1667 -0.0511
  457PNCE   T1A 4097  14.643  15.332   7.919 -0.0994  0.1951  0.1186
  457PNCE   C2A 4098  14.837  15.145   7.566 -0.0838  0.0919  0.1557
  457PNCE   C3A 4099  14.766  15.175   7.130 -0.1618  0.1851 -0.3985
  457PNCE   C1B 4100  14.549  16.155   7.988  0.2045  0.4087 -0.2056
  457PNCE   C2B 4101  14.510  16.217   7.547 -0.0163 -0.0316 -0.0118
  457PNCE   C3B 4102  14.623  16.313   7.096  0.0717  0.1168 -0.1309
  457PNCE   D4B 4103  14.647  16.218   6.677  0.0060 -0.0415  0.2717
  457PNCE   C5B 4104  14.914  16.484   6.410 -0.1588 -0.0003  0.1005
  457PNCE   C6B 4105  15.097  16.814   6.468 -0.1326 -0.4079  0.2263
  458PNCE   AM1 4106  14.073   7.867   8.853 -0.0061  0.3370  0.1180
  458PNCE   AM2 4107  14.098   7.646   9.017 -0.1186  0.4912  0.0614
  458PNCE   T1A 4108  14.544   8.118   8.718 -0.2163  0.1880  0.1047
  458PNCE   C2A 4109  15.034   8.085   8.552 -0.2415  0.1245  0.0727
  458PNCE   C3A 4110  15.149   8.150   8.169  0.2150 -0.2616  0.0714
  458PNCE   C1B 4111  14.583   7.618   8.803 -0.5150  0.0039  0.0239
  458PNCE   C2B 4112  14.763   7.672   8.487 -0.2690 -0.0053 -0.3820
  458PNCE   C3B 4113  14.638   7.743   8.149 -0.1038 -0.1712  0.0356
  458PNCE   D4B 4114  14.660   7.933   7.865  0.0390 -0.2152  0.0441
  458PNCE   C5B 4115  14.341   8.096   7.702  0.0866 -0.0453 -0.2264
  458PNCE   C6B 4116  14.333   8.536   7.583  0.0014  0.0905  0.2253
  459XCA    COO 4117  10.615   7.104   4.870  0.0674  0.1684  0.0746
  459XCA     C1 4118  10.428   7.332   5.175 -0.1222  0.1828  0.2523
  459XCA     C2 4119  10.573   7.457   5.598 -0.0955 -0.0571 -0.3544
  459XCA     C3 4120  10.941   7.760   5.587  0.2039 -0.1595  0.5771
  459XCA     C4 4121  11.304   8.003   5.625  0.0328 -0.0982 -0.2805
  459XCA     C5 4122  11.553   8.323   5.792 -0.4743  0.0972 -0.1607
  459XCA     C6 4123  12.045   8.265   5.703 -0.4599 -0.2717 -0.3941
  460CHOL   ROH 4124  11.945  12.477   7.574 -0.0134  0.0981 -0.1032
  460CHOL    R1 4125  12.164  12.360   7.438 -0.2373 -0.0698 -0.3294
  460CHOL    R2 4126  12.181  12.353   7.163 -0.2527  0.4460 -0.3550
  460CHOL    R3 4127  12.422  12.471   7.208 -0.0128 -0.1063 -0.0990
  460CHOL    R4 4128  12.428  12.395   6.925 -0.1193  0.3628 -0.2320
  460CHOL    R5 4129  12.576  12.344   7.076 -0.2420 -0.1966 -0.2843
  460CHOL    C1 4130  12.798  12.531   6.828  0.1838 -0.2041  0.0799
  460CHOL    C2 4131  12.856  12.848   6.485  0.1138 -0.2462 -0.2362
  461CHOL   ROH 4132   7.295   6.339   8.535  0.1270 -0.2672  0.0585
  461CHOL    R1 4133   7.344   6.183   8.304  0.1968 -0.0927 -0.0486
  461CHOL    R2 4134   7.164   6.165   8.096  0.1854 -0.0628 -0.0484
  461CHOL    R3 4135   7.378   6.243   7.947  0.1294  0.1595 -0.0138
  461CHOL    R4 4136   7.171   6.176   7.750  0.3238 -0.3503 -0.0559
  461CHOL    R5 4137   7.374   6.097   7.757  0.4537 -0.0143  0.1077
  461CHOL    C1 4138   7.376   6.255   7.410  0.3518 -0.3089 -0.0278
  461CHOL    C2 4139   7.064   6.389   7.233  0.0929 -0.1126  0.0298
  462CHOL   ROH 4140   7.196   6.652   5.235  0.2475  0.0267 -0.0573
  462CHOL    R1 4141   7.274   6.634   5.506  0.2360  0.0821 -0.0500
  462CHOL    R2 4142   7.189   6.430   5.672  0.0853  0.2102  0.0374
  462CHOL    R3 4143   7.455   6.396   5.714  0.0629  0.0327  0.0442
  462CHOL    R4 4144   7.328   6.307   5.963  0.0145  0.2211  0.0766
  462CHOL    R5 4145   7.487   6.455   5.944  0.1183  0.0957  0.0163
  462CHOL    C1 4146   7.660   6.203   6.172 -0.0477  0.0609  0.1058
  462CHOL    C2 4147   7.594   5.830   6.368 -0.1340  0.1723  0.2306
  463CHOL   ROH 4148  12.207   6.999   7.144 -0.3299  0.0773 -0.0590
  463CHOL    R1 4149  12.275   7.107   6.892  0.0697  0.0475  0.0289
  463CHOL    R2 4150  12.140   7.320   6.780 -0.0361 -0.2250 -0.3877
  463CHOL    R3 4151  12.390   7.427   6.763 -0.1528  0.1676  0.1255
  463CHOL    R4 4152  12.214   7.629   6.643 -0.2285 -0.1434 -0.3099
  463CHOL    R5 4153  12.391   7.541   6.552  0.1206  0.1078  0.0917
  463CHOL    C1 4154  12.490   7.910   6.548 -0.4503  0.2726  0.2172
  463CHOL    C2 4155  12.722   8.303   6.594  0.3684  0.1344 -0.1264
  464CHOL   ROH 4156   0.948  11.451   6.468 -0.0588 -0.0066  0.0308
  464CHOL    R1 4157   1.105  11.675   6.542 -0.1393  0.0718 -0.0379
  464CHOL    R2 4158   0.994  11.921   6.601 -0.2492 -0.0215  0.1289
  464CHOL    R3 4159   1.134  11.893   6.833 -0.0285  0.0049  0.0036
  464CHOL    R4 4160   1.091  12.182   6.806 -0.3441 -0.0148  0.1679
  464CHOL    R5 4161   1.282  12.080   6.836 -0.2108  0.1576 -0.0361
  464CHOL    C1 4162   1.279  12.307   7.143 -0.1922  0.0140  0.0729
  464CHOL    C2 4163   1.414  12.641   7.272  0.0716  0.2232  0.2598
  465XCA    COO 4164   6.223  13.481   4.813  0.2223  0.0296  0.1483
  465XCA     C1 4165   6.455  13.623   5.295  0.0930 -0.0899  0.0103
  465XCA     C2 4166   6.798  13.449   5.535 -0.2582 -0.3205  0.1105
  465XCA     C3 4167   6.945  13.362   5.842  0.1328 -0.2635 -0.0130
  465XCA     C4 4168   6.901  13.046   6.093  0.3631 -0.2508 -0.0651
  465XCA     C5 4169   6.613  12.724   6.202  0.1625 -0.2852 -0.1726
  465XCA     C6 4170   6.187  12.832   5.920  0.1328  0.1732  0.1344
  466PNCE   AM1 4171  14.403  14.726   8.588 -0.1252  0.2798 -0.0215
  466PNCE   AM2 4172  14.665  14.624   8.541 -0.0003  0.0034  0.2556
  466PNCE   T1A 4173  14.143  14.759   8.246  0.1493 -0.1456 -0.1574
  466PNCE   C2A 4174  13.948  14.808   7.843  0.0478 -0.1638 -0.2535
  466PNCE   C3A 4175  13.961  15.010   7.392  0.2067  0.1091 -0.0036
  466PNCE   C1B 4176  14.810  14.509   8.000  0.0028 -0.0449 -0.2275
  466PNCE   C2B 4177  14.996  14.593   7.664  0.0045  0.0957  0.1975
  466PNCE   C3B 4178  15.076  14.744   7.207 -0.1307  0.4324  0.1715
  466PNCE   D4B 4179  14.883  14.880   6.754 -0.1894 -0.0624  0.0339
  466PNCE   C5B 4180  15.002  15.274   6.615 -0.1409 -0.2176 -0.1463
  466PNCE   C6B 4181  15.047  15.506   6.302 -0.2489 -0.3150 -0.2036
  467PNCE   AM1 4182  10.418   3.317   8.372  0.1442 -0.0108 -0.1566
  467PNCE   AM2 4183  10.772   3.522   8.247  0.2275 -0.2434  0.3912
  467PNCE   T1A 4184  10.400   3.309   7.980  0.1616  0.1668 -0.1712
  467PNCE   C2A 4185  10.169   3.290   7.534  0.0957 -0.0145  0.0242
  467PNCE   C3A 4186   9.888   3.499   7.237 -0.1376  0.1245 -0.1922
  467PNCE   C1B 4187  10.847   3.362   7.791 -0.1694 -0.1016  0.2100
  467PNCE   C2B 4188  10.976   3.220   7.398  0.1917 -0.0572  0.1596
  467PNCE   C3B 4189  11.174   2.918   7.149  0.0503 -0.0942  0.2107
  467PNCE   D4B 4190  11.493   3.023   6.816  0.1022 -0.1634  0.1678
  467PNCE   C5B 4191  11.486   3.218   6.378  0.1169  0.6135  0.0498
  467PNCE   C6B 4192  11.268   3.452   6.056 -0.0116  0.0424  0.1832
  468XCA    COO 4193   7.192   5.907   8.891 -0.0501 -0.0012 -0.1637
  468XCA     C1 4194   6.970   5.836   8.517  0.0817  0.3147  0.0400
  468XCA     C2 4195   7.212   5.746   8.272 -0.0437  0.3857 -0.3690
  468XCA     C3 4196   7.319   5.665   7.822 -0.4149  0.2388 -0.2632
  468XCA     C4 4197   7.503   5.461   7.536  0.0143 -0.0915  0.0037
  468XCA     C5 4198   7.841   5.366   7.158  0.3146  0.0600 -0.1356
  468XCA     C6 4199   8.107   5.675   6.858  0.1230 -0.0512 -0.0736
  469PNCE   AM1 4200   0.654  12.879   8.209 -0.0177  0.1563 -0.1836
  469PNCE   AM2 4201   0.385  12.794   8.125  0.1497 -0.1394 -0.2788
  469PNCE   T1A 4202   0.693  13.050   7.797 -0.3938 -0.1927  0.1855
  469PNCE   C2A 4203   0.977  13.116   7.533 -0.1370 -0.0661 -0.2447
  469PNCE   C3A 4204   1.292  12.835   7.730 -0.1090 -0.1855 -0.0622
  469PNCE   C1B 4205   0.191  13.021   7.778  0.3262 -0.0326  0.0586
  469PNCE   C2B 4206   0.226  13.174   7.408 -0.4415 -0.0285 -0.0943
  469PNCE   C3B 4207   0.498  13.464   7.184 -0.1201 -0.0483 -0.1005
  469PNCE   D4B 4208   0.996  13.449   7.171 -0.3052  0.2082 -0.1929
  469PNCE   C5B 4209   1.193  13.080   7.088  0.2131 -0.2022 -0.2704
  469PNCE   C6B 4210   1.545  12.936   6.891 -0.1286  0.5074 -0.3273
  470XCA    COO 4211  11.644  13.734   8.018 -0.1402 -0.0873 -0.2665
  470XCA     C1 4212  11.456  13.843   7.683 -0.3066 -0.0075 -0.0729
  470XCA     C2 4213  11.516  13.998   7.249 -0.0858 -0.2530 -0.1781
  470XCA     C3 4214  11.712  14.322   6.928 -0.0106 -0.0458  0.1414
  470XCA     C4 4215  11.893  14.795   6.729  0.0009 -0.0450  0.1813
  470XCA     C5 4216  11.818  14.930   6.318 -0.1989  0.1557 -0.1843
  470XCA     C6 4217  11.535  14.919   5.996  0.0931 -0.3397 -0.0625
  471XCA    COO 4218   1.231  12.992   4.353  0.2204 -0.2706  0.1503
  471XCA     C1 4219   1.054  13.028   4.716 -0.0013 -0.1345 -0.1702
  471XCA     C2 4220   0.878  13.231   5.011 -0.0758 -0.0031  0.1631
  471XCA     C3 4221   0.891  13.452   5.394 -0.0679  0.2695  0.0966
  471XCA     C4 4222   0.738  13.794   5.673  0.0748 -0.4197 -0.2431
  471XCA     C5 4223   0.540  13.958   6.011  0.0050 -0.0654 -0.0245
  471XCA     C6 4224   0.596  14.404   6.252 -0.1493  0.3207 -0.0565
  472PNCE   AM1 4225   4.674   5.330   9.154 -0.0021 -0.3357 -0.1981
  472PNCE   AM2 4226   4.783   5.249   8.845 -0.1541 -0.1988 -0.4601
  472PNCE   T1A 4227   4.405   5.516   8.886  0.0321  0.2338 -0.0492
  472PNCE   C2A 4228   4.466   5.546   8.526  0.3787  0.1174  0.2852
  472PNCE   C3A 4229   4.330   5.663   8.152 -0.0280  0.1394 -0.1178
  472PNCE   C1B 4230   4.968   5.407   8.406  0.2709 -0.0872  0.1896
  472PNCE   C2B 4231   4.769   5.830   8.373  0.1696  0.2151  0.0646
  472PNCE   C3B 4232   4.438   6.100   8.395 -0.1755  0.1988 -0.1117
  472PNCE   D4B 4233   4.116   6.108   8.156 -0.3042 -0.1502  0.2502
  472PNCE   C5B 4234   4.100   5.974   7.793 -0.1280  0.1195 -0.0656
  472PNCE   C6B 4235   4.211   5.825   7.478  0.0969  0.1402  0.1451
  473PNCE   AM1 4236  10.543   4.924   8.620  0.4520  0.1481  0.0854
  473PNCE   AM2 4237  10.808   5.102   8.538  0.0746 -0.0680 -0.0976
  473PNCE   T1A 4238  10.521   4.934   8.165 -0.0808  0.0579  0.0378
  473PNCE   C2A 4239  10.284   5.248   7.784  0.6786 -0.0451  0.0311
  473PNCE   C3A 4240  10.297   5.609   7.458 -0.0998  0.1215 -0.3071
  473PNCE   C1B 4241  10.976   5.053   8.270 -0.0813  0.1841 -0.1340
  473PNCE   C2B 4242  10.934   5.106   7.842 -0.1650  0.0160 -0.0079
  473PNCE   C3B 4243  10.612   4.925   7.528  0.0709 -0.0467 -0.0041
  473PNCE   D4B 4244  10.537   4.750   7.036  0.1482 -0.1844  0.0874
  473PNCE   C5B 4245  10.249   4.427   6.831 -0.1401  0.2827 -0.1523
  473PNCE   C6B 4246   9.854   4.392   6.570 -0.0027  0.2440 -0.2971
  474PNCE   AM1 4247   8.770   1.273   7.760  0.0482  0.0569  0.0472
  474PNCE   AM2 4248   8.556   0.923   7.960 -0.0590  0.2123 -0.0378
  474PNCE   T1A 4249   8.949   1.431   8.127  0.2369  0.2524  0.1136
  474PNCE   C2A 4250   8.980   1.711   8.320 -0.2154  0.1199  0.1050
  474PNCE   C3A 4251   9.042   2.099   8.512 -0.2542 -0.3333 -0.0624
  474PNCE   C1B 4252   8.564   0.941   7.464 -0.2882  0.2203  0.0505
  474PNCE   C2B 4253   8.265   0.614   7.148 -0.2247  0.0760 -0.3633
  474PNCE   C3B 4254   8.195   0.481   6.767 -0.1280 -0.3315  0.1059
  474PNCE   D4B 4255   8.297   0.084   6.567  0.1091 -0.3509  0.0946
  474PNCE   C5B 4256   8.298  -0.383   6.799  0.4057  0.1030  0.0060
  474PNCE   C6B 4257   7.973  -0.715   6.967 -0.2059 -0.1049  0.1065
  475XCA    COO 4258  12.953  11.299   8.299  0.2004  0.1763 -0.3867
  475XCA     C1 4259  13.009  11.295   7.855  0.1275  0.1486  0.4048
  475XCA     C2 4260  13.111  11.369   7.465 -0.3281 -0.0683 -0.0570
  475XCA     C3 4261  13.183  11.180   7.134 -0.0912  0.1055 -0.2261
  475XCA     C4 4262  13.364  11.156   6.661  0.3447 -0.2208 -0.0774
  475XCA     C5 4263  13.307  10.802   6.293 -0.2257 -0.0353 -0.0051
  475XCA     C6 4264  13.257  10.389   6.055  0.1030 -0.2011  0.0126
  476PNCE   AM1 4265   7.049   3.165   8.113  0.1430 -0.3691 -0.1525
  476PNCE   AM2 4266   6.708   2.967   8.004 -0.1868 -0.1743  0.4062
  476PNCE   T1A 4267   7.255   3.502   7.997  0.1127  0.2394  0.0321
  476PNCE   C2A 4268   7.371   3.707   7.585 -0.0358 -0.1726 -0.1788
  476PNCE   C3A 4269   7.258   4.024   7.303  0.2317 -0.1718 -0.0330
  476PNCE   C1B 4270   6.651   3.098   7.594 -0.2049  0.3233  0.3504
  476PNCE   C2B 4271   6.725   3.109   7.147 -0.1685 -0.0765  0.0097
  476PNCE   C3B 4272   6.707   3.372   6.853  0.1400 -0.0505 -0.0243
  476PNCE   D4B 4273   6.488   3.494   6.521  0.2749  0.0137  0.1902
  476PNCE   C5B 4274   6.080   3.515   6.485  0.0873 -0.0949 -0.0088
  476PNCE   C6B 4275   5.565   3.673   6.527  0.3601 -0.2102  0.1331
  477CHOL   ROH 4276   5.608   2.469   5.060  0.0782 -0.0215 -0.0948
  477CHOL    R1 4277   5.643   2.272   5.260 -0.0112  0.0709  0.0134
  477CHOL    R2 4278   5.873   2.120   5.281 -0.1479 -0.1462 -0.0162
  477CHOL    R3 4279   5.872   2.213   5.537  0.0821  0.0223 -0.0734
  477CHOL    R4 4280   6.037   1.971   5.546 -0.0855 -0.0915 -0.0240
  477CHOL    R5 4281   5.864   2.015   5.672  0.0252  0.1143  0.0600
  477CHOL    C1 4282   6.132   1.971   5.940  0.1666  0.0987 -0.0821
  477CHOL    C2 4283   6.406   1.657   6.024 -0.2780  0.1086  0.0646
  478CHOL   ROH 4284   1.510  11.085   6.797 -0.0072 -0.0114  0.0128
  478CHOL    R1 4285   1.618  10.839   6.709 -0.0647 -0.0393  0.0196
  478CHOL    R2 4286   1.472  10.658   6.560 -0.0913  0.0127 -0.0194
  478CHOL    R3 4287   1.683  10.678   6.389 -0.0520 -0.0401  0.0229
  478CHOL    R4 4288   1.549  10.428   6.313 -0.1539  0.0423 -0.0666
  478CHOL    R5 4289   1.760  10.452   6.363 -0.1516 -0.0688 -0.0233
  478CHOL    C1 4290   1.792  10.313   6.009 -0.1535  0.0100 -0.0545
  478CHOL    C2 4291   2.023   9.983   5.756 -0.0167  0.0670  0.0112
  479XCA    COO 4292  11.287  15.805   8.564 -0.1843 -0.0880  0.0317
  479XCA     C1 4293  11.693  15.875   8.362  0.0317  0.1175 -0.2037
  479XCA     C2 4294  11.929  16.214   8.172  0.1730 -0.2468  0.1049
  479XCA     C3 4295  11.699  16.437   8.012 -0.0901 -0.2984 -0.1924
  479XCA     C4 4296  11.350  16.585   7.987 -0.1949  0.1511 -0.0749
  479XCA     C5 4297  11.050  16.890   7.888 -0.0393  0.1179  0.1033
  479XCA     C6 4298  10.911  17.078   7.419  0.0275  0.0049  0.2258
  480CHOL   ROH 4299  12.129   9.581   4.652  0.0313 -0.1575  0.1829
  480CHOL    R1 4300  12.129   9.851   4.737  0.1561 -0.1079  0.0312
  480CHOL    R2 4301  11.940   9.952   4.912  0.1235  0.1107 -0.1249
  480CHOL    R3 4302  12.159  10.029   5.053  0.0979  0.0492 -0.0510
  480CHOL    R4 4303  11.950  10.218   5.132  0.1273  0.1070 -0.1203
  480CHOL    R5 4304  12.147  10.268   5.055  0.1657  0.0516 -0.0533
  480CHOL    C1 4305  12.161  10.445   5.393  0.1053  0.0471 -0.0482
  480CHOL    C2 4306  12.035  10.700   5.729  0.0213 -0.1759  0.3930
  481CHOL   ROH 4307  13.590   7.267   8.435  0.2579 -0.1328  0.0582
  481CHOL    R1 4308  13.553   7.394   8.185  0.1931 -0.1387  0.0631
  481CHOL    R2 4309  13.764   7.483   8.029  0.1531  0.0021  0.0736
  481CHOL    R3 4310  13.646   7.328   7.839  0.2527 -0.0648  0.0678
  481CHOL    R4 4311  13.815   7.513   7.689  0.1964 -0.0287  0.0783
  481CHOL    R5 4312  13.603   7.478   7.658  0.2257 -0.1152  0.0417
  481CHOL    C1 4313  13.735   7.386   7.312  0.3152 -0.1094  0.0756
  481CHOL    C2 4314  13.865   7.510   6.899  0.1091 -0.0145 -0.0916
  482PNCE   AM1 4315   6.060  14.931   8.846 -0.4709  0.0867 -0.1432
  482PNCE   AM2 4316   5.956  14.779   8.598 -0.1627  0.1720  0.2023
  482PNCE   T1A 4317   6.459  14.848   8.563  0.4817  0.2735 -0.3910
  482PNCE   C2A 4318   6.767  14.599   8.272  0.1611 -0.3800  0.3730
  482PNCE   C3A 4319   7.007  14.313   8.293  0.2526  0.1507 -0.0327
  482PNCE   C1B 4320   5.687  14.785   8.174 -0.1676 -0.0211 -0.1735
  482PNCE   C2B 4321   5.809  15.109   7.838  0.0122  0.0905 -0.0493
  482PNCE   C3B 4322   6.017  15.501   7.764  0.3050  0.0037  0.0198
  482PNCE   D4B 4323   6.086  15.669   8.171  0.1990 -0.0130 -0.0022
  482PNCE   C5B 4324   6.545  15.498   8.233 -0.1393 -0.0947 -0.0983
  482PNCE   C6B 4325   6.975  15.587   8.291 -0.0031  0.0009  0.1594
  483PNCE   AM1 4326   6.421  12.671   8.321  0.0034  0.0795  0.2370
  483PNCE   AM2 4327   6.375  12.549   8.572  0.0801  0.1968 -0.0425
  483PNCE   T1A 4328   6.561  12.695   7.919  0.4046  0.2368 -0.0288
  483PNCE   C2A 4329   6.583  12.685   7.497 -0.1782 -0.2375 -0.2062
  483PNCE   C3A 4330   6.583  12.883   7.083  0.0479  0.2239 -0.0839
  483PNCE   C1B 4331   6.014  12.417   8.265  0.0810 -0.0234  0.0243
  483PNCE   C2B 4332   5.868  12.436   7.816 -0.1785  0.1197  0.2540
  483PNCE   C3B 4333   5.735  12.343   7.421  0.3732  0.0436  0.1927
  483PNCE   D4B 4334   5.721  12.338   7.026 -0.1082  0.2502 -0.1041
  483PNCE   C5B 4335   6.101  12.544   6.882 -0.0720 -0.0482  0.1443
  483PNCE   C6B 4336   6.154  12.734   6.465  0.4175  0.4594 -0.3248
  484PNCE   AM1 4337  10.168   5.954   8.305 -0.1520 -0.2094 -0.1039
  484PNCE   AM2 4338   9.976   5.837   8.507 -0.0915 -0.1318  0.0599
  484PNCE   T1A 4339  10.233   6.186   7.998  0.2092 -0.1520  0.0144
  484PNCE   C2A 4340  10.102   6.094   7.564  0.4508 -0.2086 -0.0742
  484PNCE   C3A 4341  10.022   5.986   7.167  0.1648 -0.0043  0.2131
  484PNCE   C1B 4342   9.825   5.615   8.121  0.0600  0.3016 -0.2625
  484PNCE   C2B 4343   9.824   5.588   7.660  0.0193 -0.0206  0.0801
  484PNCE   C3B 4344   9.650   5.653   7.207 -0.0193  0.2291 -0.2391
  484PNCE   D4B 4345   9.259   5.705   7.024  0.3326  0.0100 -0.0060
  484PNCE   C5B 4346   9.144   5.972   6.753 -0.3145  0.0914 -0.1070
  484PNCE   C6B 4347   8.783   6.145   6.676  0.1472 -0.2552  0.2212
  485PNCE   AM1 4348  13.120   0.244   8.639 -0.0686  0.1318 -0.2634
  485PNCE   AM2 4349  13.438   0.336   8.534  0.0771 -0.0385  0.0985
  485PNCE   T1A 4350  12.802   0.086   8.306  0.0693 -0.2806  0.3462
  485PNCE   C2A 4351  12.486   0.281   7.952  0.2427  0.1228  0.0154
  485PNCE   C3A 4352  12.002   0.358   7.673 -0.1331 -0.0386 -0.1133
  485PNCE   C1B 4353  13.356   0.434   8.110  0.3512 -0.1384  0.0638
  485PNCE   C2B 4354  13.560   0.300   7.715  0.0667  0.0958  0.1350
  485PNCE   C3B 4355  13.358   0.402   7.348  0.2064  0.0808  0.0693
  485PNCE   D4B 4356  13.246   0.367   6.937 -0.0453  0.0966  0.1489
  485PNCE   C5B 4357  13.107  -0.041   6.725 -0.2709 -0.1856  0.2706
  485PNCE   C6B 4358  12.952  -0.374   6.820 -0.2845 -0.0863 -0.1403
  486PNCE   AM1 4359   0.559   8.925   9.115 -0.0519  0.2069  0.1615
  486PNCE   AM2 4360   0.219   8.950   9.215 -0.1355  0.0943  0.0865
  486PNCE   T1A 4361   0.584   8.425   9.127  0.1790  0.0104  0.1383
  486PNCE   C2A 4362   0.816   8.082   9.124  0.1342 -0.1972 -0.0380
  486PNCE   C3A 4363   0.810   7.712   9.208 -0.2313 -0.0724  0.3106
  486PNCE   C1B 4364   0.126   8.782   8.758 -0.4386 -0.1173  0.0103
  486PNCE   C2B 4365  -0.183   8.570   8.644 -0.3313 -0.2989 -0.1081
  486PNCE   C3B 4366  -0.269   8.250   8.425 -0.2340 -0.1610  0.1558
  486PNCE   D4B 4367  -0.224   7.833   8.246 -0.2417 -0.2683  0.1552
  486PNCE   C5B 4368  -0.011   7.610   7.945 -0.0670 -0.2099 -0.2360
  486PNCE   C6B 4369   0.278   7.407   7.689  0.0440 -0.0811 -0.2166
  487PNCE   AM1 4370   0.178   2.663   8.948  0.1898 -0.0684 -0.2495
  487PNCE   AM2 4371   0.496   2.667   8.751  0.0761  0.0256 -0.0364
  487PNCE   T1A 4372  -0.212   2.743   8.908 -0.0346 -0.1501  0.2943
  487PNCE   C2A 4373  -0.537   2.791   8.575 -0.0318  0.2062  0.1398
  487PNCE   C3A 4374  -0.924   2.639   8.378 -0.2168 -0.1567 -0.3651
  487PNCE   C1B 4375   0.201   2.298   8.474  0.0497 -0.2099 -0.2037
  487PNCE   C2B 4376   0.086   2.228   7.997  0.0219 -0.0799  0.3110
  487PNCE   C3B 4377   0.310   2.466   7.614 -0.1164  0.3007  0.1486
  487PNCE   D4B 4378   0.401   2.573   7.173  0.0265 -0.3289  0.1235
  487PNCE   C5B 4379   0.222   2.626   6.844 -0.1023  0.2290  0.0882
  487PNCE   C6B 4380   0.228   2.779   6.503  0.3003 -0.3424 -0.1771
  488PNCE   AM1 4381   7.790  13.684   8.083 -0.4210 -0.0830 -0.1117
  488PNCE   AM2 4382   7.627  13.877   8.239  0.1784  0.2076 -0.2680
  488PNCE   T1A 4383   7.841  14.019   7.761 -0.2033 -0.0846 -0.0778
  488PNCE   C2A 4384   7.922  14.303   7.435  0.1404 -0.0502  0.1194
  488PNCE   C3A 4385   8.287  14.290   7.107 -0.0136 -0.0282 -0.0919
  488PNCE   C1B 4386   7.428  14.228   8.018 -0.1665  0.1693 -0.1014
  488PNCE   C2B 4387   6.981  14.280   7.837  0.2274 -0.0967  0.1622
  488PNCE   C3B 4388   6.786  13.962   7.629  0.0573  0.1041 -0.0486
  488PNCE   D4B 4389   6.434  13.858   7.353 -0.1113 -0.2087  0.1936
  488PNCE   C5B 4390   6.298  13.976   6.902 -0.0307 -0.1380 -0.1840
  488PNCE   C6B 4391   6.169  14.273   6.613 -0.0414 -0.0912  0.1057
  489XCA    COO 4392   6.627   6.951   8.836  0.1727  0.0832 -0.1057
  489XCA     C1 4393   6.539   7.250   8.474 -0.0792  0.0749 -0.0122
  489XCA     C2 4394   6.234   7.344   8.160 -0.4138  0.1208  0.1839
  489XCA     C3 4395   5.982   7.309   7.781  0.0099  0.1460  0.0484
  489XCA     C4 4396   5.807   7.304   7.390 -0.1662  0.2598 -0.1376
  489XCA     C5 4397   5.623   6.900   7.195  0.0207  0.2260  0.0996
  489XCA     C6 4398   5.452   6.567   7.290 -0.0211 -0.2443  0.3960
  490CHOL   ROH 4399  11.714  11.009   3.848  0.0456  0.3719 -0.2570
  490CHOL    R1 4400  11.636  11.215   4.026  0.2275  0.2944 -0.0825
  490CHOL    R2 4401  11.548  11.462   3.939  0.0835  0.3197  0.1138
  490CHOL    R3 4402  11.333  11.405   4.095  0.2770  0.2253  0.3514
  490CHOL    R4 4403  11.299  11.687   4.022 -0.1647  0.0893  0.0057
  490CHOL    R5 4404  11.298  11.604   4.224  0.1037  0.3485  0.1173
  490CHOL    C1 4405  10.952  11.764   4.217 -0.1275 -0.1334  0.1657
  490CHOL    C2 4406  10.842  12.101   4.096  0.1996  0.0882 -0.3613
  491CHOL   ROH 4407   8.564  13.048   5.101 -0.0271 -0.0483 -0.0980
  491CHOL    R1 4408   8.646  12.869   5.305 -0.0990 -0.0775 -0.0954
  491CHOL    R2 4409   8.870  12.914   5.462 -0.0330 -0.2069 -0.1553
  491CHOL    R3 4410   8.693  12.883   5.666 -0.0053 -0.0641 -0.1075
  491CHOL    R4 4411   8.956  12.871   5.793  0.0125  0.0886 -0.1249
  491CHOL    R5 4412   8.797  12.724   5.811  0.0385  0.0744  0.0178
  491CHOL    C1 4413   8.841  12.816   6.178  0.0651  0.3947 -0.0622
  491CHOL    C2 4414   9.157  12.548   6.195 -0.3062 -0.2864  0.0374
  492CHOL   ROH 4415   8.195  11.522   5.151 -0.1013 -0.0380 -0.1810
  492CHOL    R1 4416   8.074  11.697   5.338 -0.0567 -0.0996 -0.0934
  492CHOL    R2 4417   7.888  11.612   5.523 -0.0268 -0.1581 -0.0870
  492CHOL    R3 4418   8.058  11.727   5.700  0.0153 -0.2323 -0.0794
  492CHOL    R4 4419   7.808  11.692   5.850 -0.0894  0.1259 -0.1694
  492CHOL    R5 4420   7.921  11.877   5.826  0.1186 -0.0079 -0.2318
  492CHOL    C1 4421   7.922  11.847   6.206 -0.0865  0.2217 -0.2104
  492CHOL    C2 4422   7.859  12.139   6.350  0.1282  0.2921  0.3036
  493PNCE   AM1 4423  10.933   6.746   8.402 -0.2243  0.2535  0.2814
  493PNCE   AM2 4424  11.250   6.918   8.499 -0.2272  0.2673  0.0081
  493PNCE   T1A 4425  10.974   6.441   8.033  0.1404 -0.3441  0.2290
  493PNCE   C2A 4426  11.004   6.454   7.542 -0.2455 -0.0061  0.1132
  493PNCE   C3A 4427  10.854   6.388   7.065  0.3174  0.4388  0.1486
  493PNCE   C1B 4428  11.617   6.971   8.274  0.3517  0.0631 -0.1754
  493PNCE   C2B 4429  11.739   7.056   7.879 -0.1675 -0.0660  0.2691
  493PNCE   C3B 4430  11.773   7.060   7.455 -0.2706 -0.3377  0.1209
  493PNCE   D4B 4431  12.013   7.453   7.382  0.1009 -0.0252  0.0099
  493PNCE   C5B 4432  11.826   7.938   7.338 -0.2035 -0.1252  0.2575
  493PNCE   C6B 4433  11.928   8.409   7.156 -0.0721  0.1504  0.0143
  494XCA    COO 4434  13.662  11.469   8.737  0.2218 -0.0011 -0.1332
  494XCA     C1 4435  13.286  11.675   8.504 -0.0498 -0.0769 -0.0099
  494XCA     C2 4436  13.100  11.783   8.024  0.2014  0.0222  0.0819
  494XCA     C3 4437  13.090  11.782   7.591  0.3484 -0.3032 -0.1516
  494XCA     C4 4438  13.062  11.744   7.139  0.1393  0.0725 -0.0060
  494XCA     C5 4439  13.336  11.651   6.776 -0.0201 -0.0718  0.0307
  494XCA     C6 4440  13.616  11.928   6.480  0.0560  0.0658 -0.0246
  495CHOL   ROH 4441   1.402  11.642   8.392 -0.2219 -0.1053  0.1342
  495CHOL    R1 4442   1.279  11.541   8.158 -0.2078  0.2337 -0.0272
  495CHOL    R2 4443   1.291  11.671   7.915  0.3941  0.2597 -0.0049
  495CHOL    R3 4444   1.387  11.432   7.828 -0.0787  0.0281  0.0826
  495CHOL    R4 4445   1.305  11.573   7.585  0.4081  0.1941  0.0162
  495CHOL    R5 4446   1.243  11.373   7.647 -0.0855  0.3340 -0.0103
  495CHOL    C1 4447   1.402  11.291   7.310 -0.0277 -0.0613  0.1107
  495CHOL    C2 4448   1.248  11.461   6.914 -0.1145 -0.1456  0.0657
  496XCA    COO 4449   6.647   8.254   9.324 -0.1826  0.1285  0.0621
  496XCA     C1 4450   6.680   8.127   8.991  0.0213 -0.2728  0.2693
  496XCA     C2 4451   6.508   8.014   8.567  0.1364 -0.0153  0.3877
  496XCA     C3 4452   6.258   7.778   8.338 -0.1158 -0.1752  0.0738
  496XCA     C4 4453   6.070   7.878   8.061  0.3237  0.1759  0.0900
  496XCA     C5 4454   5.949   7.825   7.698  0.0604  0.0424 -0.0068
  496XCA     C6 4455   5.934   8.094   7.362  0.1850  0.1228  0.1151
  497PNCE   AM1 4456   8.895   3.913   8.289  0.0060 -0.1160  0.2827
  497PNCE   AM2 4457   9.040   4.254   8.309 -0.2331  0.0876 -0.3164
  497PNCE   T1A 4458   8.892   3.811   7.931 -0.1434  0.0522  0.4588
  497PNCE   C2A 4459   8.654   3.663   7.590  0.1116 -0.0792 -0.0628
  497PNCE   C3A 4460   8.470   3.666   7.207 -0.0107  0.1008 -0.1222
  497PNCE   C1B 4461   8.832   4.402   7.974 -0.1095 -0.1047 -0.2075
  497PNCE   C2B 4462   8.593   4.174   7.550  0.1359 -0.1022 -0.1305
  497PNCE   C3B 4463   8.456   4.228   7.033  0.2174 -0.0674 -0.2856
  497PNCE   D4B 4464   8.588   4.122   6.590  0.0296 -0.1308 -0.0054
  497PNCE   C5B 4465   8.279   4.326   6.333  0.3464 -0.0016  0.0606
  497PNCE   C6B 4466   8.017   4.473   6.673 -0.0038  0.2776  0.1908
  498CHOL   ROH 4467  13.130   6.738   4.842 -0.1272  0.0379 -0.0425
  498CHOL    R1 4468  13.109   6.839   5.106 -0.3149 -0.0855 -0.0067
  498CHOL    R2 4469  12.951   6.719   5.300 -0.0740 -0.4695 -0.0290
  498CHOL    R3 4470  13.183   6.720   5.442 -0.0539 -0.0549 -0.0535
  498CHOL    R4 4471  12.973   6.699   5.644  0.0086 -0.2326 -0.0191
  498CHOL    R5 4472  13.133   6.846   5.638 -0.2030 -0.0098 -0.1251
  498CHOL    C1 4473  13.203   6.687   5.978  0.0757  0.2945 -0.0366
  498CHOL    C2 4474  13.163   6.728   6.326  0.1486  0.0471  0.1144
  499PNCE   AM1 4475   0.990   0.134   8.161  0.3164 -0.0309 -0.0719
  499PNCE   AM2 4476   1.066  -0.187   8.239 -0.0679 -0.0529  0.0882
  499PNCE   T1A 4477   1.074   0.204   7.671  0.3638  0.2102  0.1776
  499PNCE   C2A 4478   1.152   0.328   7.231  0.2061 -0.0039  0.3689
  499PNCE   C3A 4479   1.150   0.663   6.871  0.1065 -0.1192 -0.0435
  499PNCE   C1B 4480   1.267  -0.214   7.824 -0.0378  0.0950 -0.0875
  499PNCE   C2B 4481   1.227  -0.367   7.500  0.4243  0.0353 -0.1363
  499PNCE   C3B 4482   1.527  -0.525   7.198 -0.0224  0.0623  0.1663
  499PNCE   D4B 4483   1.763  -0.513   6.817  0.0549  0.2277  0.0924
  499PNCE   C5B 4484   1.936  -0.845   6.540 -0.2648 -0.0147 -0.0119
  499PNCE   C6B 4485   2.188  -1.207   6.687 -0.4439  0.1176  0.4044
  500PNCE   AM1 4486   9.043   8.004   8.451  0.2001 -0.1452 -0.1366
  500PNCE   AM2 4487   8.781   8.134   8.619 -0.0678  0.0453 -0.2048
  500PNCE   T1A 4488   9.153   7.581   8.555  0.1160  0.0631 -0.2576
  500PNCE   C2A 4489   9.023   7.174   8.724 -0.0884  0.2476  0.2106
  500PNCE   C3A 4490   8.863   6.851   8.688 -0.1070 -0.0734  0.2708
  500PNCE   C1B 4491   8.530   7.996   8.230 -0.1961  0.0732  0.1673
  500PNCE   C2B 4492   8.354   8.118   7.837 -0.4005 -0.1096 -0.2074
  500PNCE   C3B 4493   8.125   7.758   7.512 -0.0696 -0.1613 -0.0452
  500PNCE   D4B 4494   7.918   7.865   7.144  0.0430 -0.0165 -0.0166
  500PNCE   C5B 4495   7.603   8.092   7.065 -0.1425 -0.0870  0.0422
  500PNCE   C6B 4496   7.486   8.279   6.663 -0.1766  0.0665  0.1288
  501PNCE   AM1 4497   6.179   4.278   8.447  0.0157 -0.1590  0.0684
  501PNCE   AM2 4498   6.094   4.176   8.233 -0.0892 -0.2939 -0.1465
  501PNCE   T1A 4499   6.071   4.709   8.216  0.0566  0.0833  0.0798
  501PNCE   C2A 4500   5.860   4.940   7.853 -0.2679 -0.0450 -0.0309
  501PNCE   C3A 4501   5.874   4.897   7.424  0.1368  0.0557 -0.1371
  501PNCE   C1B 4502   5.906   4.345   7.849 -0.1214  0.2119 -0.0715
  501PNCE   C2B 4503   5.649   4.386   7.439 -0.3562  0.0905  0.4878
  501PNCE   C3B 4504   5.739   4.310   7.037  0.2148 -0.0300 -0.0918
  501PNCE   D4B 4505   5.681   4.147   6.636  0.2223  0.2178 -0.1204
  501PNCE   C5B 4506   5.488   4.256   6.290 -0.1165  0.1284 -0.1763
  501PNCE   C6B 4507   5.563   4.615   6.165  0.4267  0.0768  0.2788
  502PNCE   AM1 4508   7.056   4.437   8.455  0.1426  0.2653  0.1364
  502PNCE   AM2 4509   6.758   4.344   8.369 -0.2689  0.2920 -0.4633
  502PNCE   T1A 4510   6.993   4.777   8.238 -0.2038  0.0058 -0.1455
  502PNCE   C2A 4511   6.913   4.881   7.789  0.1723  0.0171 -0.1563
  502PNCE   C3A 4512   6.890   5.339   7.556 -0.1594  0.2651 -0.1021
  502PNCE   C1B 4513   6.663   4.471   8.007  0.0190 -0.3379  0.1468
  502PNCE   C2B 4514   6.414   4.792   7.661 -0.1833  0.0758  0.1505
  502PNCE   C3B 4515   6.386   5.241   7.598 -0.0717  0.2203 -0.1474
  502PNCE   D4B 4516   6.344   5.718   7.486 -0.0212  0.0134  0.2442
  502PNCE   C5B 4517   6.309   5.782   7.111  0.0183 -0.2666  0.2562
  502PNCE   C6B 4518   6.285   6.037   6.864 -0.1235  0.3364 -0.3743
  503CHOL   ROH 4519  11.098  13.093   7.222 -0.1552 -0.1057 -0.1672
  503CHOL    R1 4520  11.318  12.964   7.100  0.0310  0.1349 -0.0956
  503CHOL    R2 4521  11.287  12.777   6.899  0.2860 -0.0724  0.0505
  503CHOL    R3 4522  11.459  12.941   6.766  0.0186  0.0946 -0.0978
  503CHOL    R4 4523  11.424  12.710   6.589  0.1338  0.0355 -0.0415
  503CHOL    R5 4524  11.613  12.791   6.660  0.1014  0.2449 -0.1906
  503CHOL    C1 4525  11.664  12.824   6.283 -0.2060  0.2552 -0.2342
  503CHOL    C2 4526  11.754  12.848   5.965 -0.0120 -0.1810 -0.1747
  504CHOL   ROH 4527   6.631   0.180   5.236  0.1735 -0.0060  0.0180
  504CHOL    R1 4528   6.447   0.272   5.431 -0.0099 -0.1055 -0.1058
  504CHOL    R2 4529   6.276   0.102   5.567  0.2785 -0.2603  0.0678
  504CHOL    R3 4530   6.388   0.217   5.786  0.0582  0.1945 -0.0434
  504CHOL    R4 4531   6.108   0.178   5.859  0.1187 -0.3070 -0.0108
  504CHOL    R5 4532   6.219   0.364   5.870 -0.2514 -0.0550 -0.1964
  504CHOL    C1 4533   6.115   0.329   6.235 -0.1812  0.0928 -0.1608
  504CHOL    C2 4534   6.212   0.133   6.550  0.1103  0.0842 -0.0808
  505CHOL   ROH 4535  14.854  11.407   7.752 -0.0034  0.0961 -0.0445
  505CHOL    R1 4536  14.865  11.268   7.506  0.1285  0.2091 -0.1039
  505CHOL    R2 4537  15.102  11.228   7.368  0.2672 -0.0544  0.1937
  505CHOL    R3 4538  15.027  10.967   7.380 -0.1269  0.0414 -0.0364
  505CHOL    R4 4539  15.154  10.995   7.118  0.2229  0.0051  0.1291
  505CHOL    R5 4540  14.956  10.915   7.157  0.0567  0.2666 -0.1498
  505CHOL    C1 4541  15.113  10.614   6.983 -0.1727  0.1298 -0.1244
  505CHOL    C2 4542  15.403  10.338   6.896  0.0763 -0.0395 -0.0078
  506CHOL   ROH 4543   5.993   7.627   8.806  0.1438  0.2682 -0.2646
  506CHOL    R1 4544   6.013   7.470   8.571  0.0676  0.0744 -0.1436
  506CHOL    R2 4545   5.970   7.197   8.570  0.0145  0.0835  0.0853
  506CHOL    R3 4546   5.791   7.259   8.374 -0.0106 -0.0432  0.0659
  506CHOL    R4 4547   5.848   6.975   8.335  0.2121 -0.0071  0.0653
  506CHOL    R5 4548   5.863   7.132   8.185  0.1124  0.0132  0.0699
  506CHOL    C1 4549   5.609   6.904   8.015  0.3037 -0.1788  0.0355
  506CHOL    C2 4550   5.747   6.829   7.629  0.0241  0.1796  0.0007
  507CHOL   ROH 4551  12.741  10.120   4.889  0.1670  0.1393 -0.0233
  507CHOL    R1 4552  12.741  10.126   5.172  0.0858  0.1362 -0.0236
  507CHOL    R2 4553  12.842  10.339   5.316 -0.0733  0.1908  0.0059
  507CHOL    R3 4554  12.596  10.336   5.431 -0.1035  0.0525 -0.0590
  507CHOL    R4 4555  12.770  10.464   5.630 -0.2445  0.2514 -0.0559
  507CHOL    R5 4556  12.640  10.292   5.663 -0.1298  0.1654 -0.0305
  507CHOL    C1 4557  12.497  10.534   5.921 -0.3725  0.1569 -0.1529
  507CHOL    C2 4558  12.271  10.671   6.145  0.1668  0.0009  0.1566
  508PNCE   AM1 4559   3.363  11.180   8.859  0.1042  0.0257 -0.1063
  508PNCE   AM2 4560   3.563  11.402   9.054  0.0406 -0.0368  0.0063
  508PNCE   T1A 4561   3.201  10.887   8.587  0.0912  0.0689 -0.0904
  508PNCE   C2A 4562   2.901  10.798   8.325 -0.0716 -0.1857  0.1758
  508PNCE   C3A 4563   2.965  10.495   7.980 -0.1046 -0.0892 -0.0226
  508PNCE   C1B 4564   3.760  11.372   8.588 -0.0887  0.1586  0.1810
  508PNCE   C2B 4565   3.902  11.347   8.201 -0.3579  0.1598 -0.2920
  508PNCE   C3B 4566   4.145  11.157   7.781 -0.0274 -0.1290  0.0846
  508PNCE   D4B 4567   4.091  10.887   7.442  0.0125  0.0242 -0.0397
  508PNCE   C5B 4568   3.909  10.506   7.405 -0.1052 -0.0343  0.0828
  508PNCE   C6B 4569   3.775  10.057   7.604 -0.1051  0.0409 -0.0269
  509CHOL   ROH 4570   5.007  11.662   9.139  0.1401 -0.0102 -0.1852
  509CHOL    R1 4571   4.965  11.717   8.864  0.0572  0.0120 -0.1698
  509CHOL    R2 4572   5.096  11.921   8.731  0.0921 -0.0336 -0.2189
  509CHOL    R3 4573   5.168  11.721   8.562 -0.0526 -0.0646 -0.2431
  509CHOL    R4 4574   5.157  11.959   8.393  0.0776 -0.0575 -0.2234
  509CHOL    R5 4575   5.054  11.771   8.358 -0.0403  0.0147 -0.2246
  509CHOL    C1 4576   5.260  11.793   8.038 -0.0667 -0.1003 -0.2487
  509CHOL    C2 4577   5.393  12.099   7.765  0.1371 -0.1523 -0.1775
  510PNCE   AM1 4578  10.704   7.563   8.626  0.0910  0.0991 -0.0123
  510PNCE   AM2 4579  10.949   7.366   8.442 -0.0721  0.0764  0.0944
  510PNCE   T1A 4580  10.306   7.578   8.224 -0.1105 -0.1204  0.2062
  510PNCE   C2A 4581  10.022   7.481   7.830  0.0326 -0.2073  0.2427
  510PNCE   C3A 4582   9.596   7.443   7.552 -0.0285  0.2001  0.1346
  510PNCE   C1B 4583  11.245   7.427   8.013 -0.1114 -0.3107 -0.0005
  510PNCE   C2B 4584  11.309   7.249   7.638  0.0183  0.0708 -0.1109
  510PNCE   C3B 4585  11.392   7.153   7.210  0.0864 -0.0634 -0.0465
  510PNCE   D4B 4586  11.239   7.265   6.821  0.0753  0.0647 -0.0970
  510PNCE   C5B 4587  11.204   7.747   6.775 -0.1691  0.1325  0.0419
  510PNCE   C6B 4588  11.039   7.861   6.405 -0.2338  0.2563 -0.1197
  511PNCE   AM1 4589  12.291  11.835   8.148  0.0689 -0.0683 -0.3033
  511PNCE   AM2 4590  12.037  11.601   8.001 -0.2500  0.2125 -0.4167
  511PNCE   T1A 4591  12.544  11.600   7.909  0.1831  0.3225 -0.2371
  511PNCE   C2A 4592  12.649  11.575   7.471  0.0426  0.1655  0.0485
  511PNCE   C3A 4593  12.710  11.419   7.015 -0.3640 -0.1398  0.1328
  511PNCE   C1B 4594  12.210  11.379   7.590  0.2968  0.4004 -0.1593
  511PNCE   C2B 4595  12.234  11.383   7.193 -0.0665 -0.1150  0.1018
  511PNCE   C3B 4596  12.279  11.547   6.749  0.0003 -0.0828  0.0877
  511PNCE   D4B 4597  12.228  11.820   6.361 -0.2681 -0.0069 -0.2983
  511PNCE   C5B 4598  12.210  11.676   6.014 -0.1834 -0.4019 -0.0785
  511PNCE   C6B 4599  12.075  11.611   5.640  0.2933  0.0216 -0.1396
  512CHOL   ROH 4600  10.017   8.000   8.572  0.0864  0.2169 -0.0625
  512CHOL    R1 4601  10.063   7.957   8.296  0.0803  0.2498 -0.0686
  512CHOL    R2 4602   9.881   7.827   8.134  0.1797  0.0620 -0.0298
  512CHOL    R3 4603   9.902   8.052   7.984 -0.0709  0.0778 -0.0453
  512CHOL    R4 4604   9.749   7.864   7.817  0.1073 -0.0970 -0.0195
  512CHOL    R5 4605   9.931   7.971   7.760 -0.0068  0.0923 -0.0434
  512CHOL    C1 4606   9.692   8.097   7.491 -0.1700 -0.1747 -0.0279
  512CHOL    C2 4607   9.572   8.280   7.143  0.2397  0.1999 -0.2754
  513CHOL   ROH 4608   5.883   2.959   8.416 -0.0422  0.2255 -0.0328
  513CHOL    R1 4609   5.891   2.922   8.136 -0.1254  0.1611 -0.0272
  513CHOL    R2 4610   6.045   2.726   8.016 -0.0789  0.2008 -0.0335
  513CHOL    R3 4611   5.808   2.656   7.902 -0.0891  0.0659  0.0672
  513CHOL    R4 4612   6.010   2.577   7.706 -0.1266  0.1937 -0.0248
  513CHOL    R5 4613   5.837   2.704   7.669 -0.2186  0.0938  0.0557
  513CHOL    C1 4614   5.768   2.425   7.418 -0.1639  0.0629  0.0748
  513CHOL    C2 4615   5.496   2.297   7.196  0.0080 -0.3195  0.3021
  514PNCE   AM1 4616  11.334   3.359   8.458 -0.0709  0.0442  0.0366
  514PNCE   AM2 4617  11.509   3.083   8.330 -0.3016  0.3273 -0.1894
  514PNCE   T1A 4618  11.069   3.046   8.171  0.0529  0.0699 -0.0955
  514PNCE   C2A 4619  10.735   2.886   7.895  0.2398 -0.0289  0.2107
  514PNCE   C3A 4620  10.344   2.739   7.790  0.0240  0.0067  0.1240
  514PNCE   C1B 4621  11.536   2.747   8.075  0.1913 -0.1054  0.0964
  514PNCE   C2B 4622  11.828   2.512   7.904  0.0655  0.1255  0.1112
  514PNCE   C3B 4623  11.736   2.282   7.594  0.0423  0.1281  0.3646
  514PNCE   D4B 4624  11.806   2.045   7.340  0.1515 -0.0758 -0.0184
  514PNCE   C5B 4625  11.502   1.750   7.130 -0.0008 -0.0294 -0.0758
  514PNCE   C6B 4626  11.109   1.543   7.051 -0.0074 -0.0696  0.1842
  515CHOL   ROH 4627   8.381  13.828   4.989 -0.0645 -0.0932  0.0471
  515CHOL    R1 4628   8.328  13.681   5.225 -0.0599 -0.2329 -0.0386
  515CHOL    R2 4629   8.429  13.427   5.268  0.2291 -0.1203 -0.0449
  515CHOL    R3 4630   8.524  13.538   5.496 -0.0838 -0.0702  0.0668
  515CHOL    R4 4631   8.604  13.256   5.512  0.4170  0.0499 -0.0577
  515CHOL    R5 4632   8.493  13.369   5.663  0.1338 -0.2274 -0.0448
  515CHOL    C1 4633   8.796  13.262   5.869  0.2328  0.1962  0.0396
  515CHOL    C2 4634   8.954  13.405   6.183 -0.0599 -0.1177 -0.0426
  516CHOL   ROH 4635   7.810   5.142   4.860 -0.1931 -0.2595  0.0719
  516CHOL    R1 4636   7.814   5.010   5.111 -0.1213 -0.2051  0.1014
  516CHOL    R2 4637   7.945   5.113   5.331 -0.0511 -0.1564  0.0470
  516CHOL    R3 4638   7.703   5.081   5.450 -0.0203 -0.1235  0.1155
  516CHOL    R4 4639   7.895   5.067   5.670  0.0177 -0.0394  0.0726
  516CHOL    R5 4640   7.741   4.920   5.622  0.0170 -0.0564  0.1622
  516CHOL    C1 4641   7.638   5.010   5.978  0.0866  0.0596  0.1518
  516CHOL    C2 4642   7.956   5.035   6.146 -0.2042 -0.0555 -0.0194
  517PNCE   AM1 4643   2.014   6.854   9.365  0.0979  0.5075 -0.0648
  517PNCE   AM2 4644   2.393   6.952   9.419 -0.4152  0.2327 -0.1459
  517PNCE   T1A 4645   2.206   6.709   8.960  0.1627 -0.3022  0.1899
  517PNCE   C2A 4646   2.235   6.279   8.778 -0.1157 -0.3714 -0.0790
  517PNCE   C3A 4647   2.427   6.095   8.387  0.1065  0.0197  0.0086
  517PNCE   C1B 4648   2.380   7.144   9.067 -0.2891 -0.1368 -0.1501
  517PNCE   C2B 4649   2.113   7.367   8.865 -0.2117 -0.1277 -0.0266
  517PNCE   C3B 4650   1.697   7.565   8.813 -0.1169  0.1239 -0.1076
  517PNCE   D4B 4651   1.411   7.636   9.071  0.3076  0.0526 -0.0815
  517PNCE   C5B 4652   1.133   7.766   8.801 -0.2808  0.1303  0.1574
  517PNCE   C6B 4653   0.679   7.868   8.662  0.3547  0.1473 -0.3582
  518PNCE   AM1 4654   4.007  10.243   9.651  0.1303  0.0339  0.2287
  518PNCE   AM2 4655   3.804  10.065   9.542 -0.0928  0.0608 -0.1330
  518PNCE   T1A 4656   4.244  10.060   9.230 -0.1854  0.0028 -0.1216
  518PNCE   C2A 4657   4.503  10.152   8.830 -0.2824  0.3391 -0.1691
  518PNCE   C3A 4658   5.004  10.112   8.619 -0.1683  0.0383  0.0473
  518PNCE   C1B 4659   3.776  10.308   9.094 -0.3107 -0.2345 -0.1195
  518PNCE   C2B 4660   3.609  10.434   8.731 -0.1331  0.1746 -0.2028
  518PNCE   C3B 4661   3.323  10.383   8.549  0.0920  0.1025 -0.3004
  518PNCE   D4B 4662   3.381  10.533   8.219  0.2423  0.3017  0.1719
  518PNCE   C5B 4663   3.764  10.383   8.016  0.1535 -0.3170 -0.1599
  518PNCE   C6B 4664   3.927  10.295   8.324  0.2908 -0.3613 -0.2262
  519XCA    COO 4665   5.445  11.453   9.350  0.2784  0.1728  0.1057
  519XCA     C1 4666   5.490  11.768   8.950  0.1081 -0.0097 -0.0558
  519XCA     C2 4667   5.630  11.821   8.521 -0.0313  0.2097  0.2093
  519XCA     C3 4668   5.573  12.134   8.227 -0.0506 -0.1419  0.1610
  519XCA     C4 4669   5.311  12.418   8.160  0.2600 -0.5142  0.3472
  519XCA     C5 4670   4.948  12.477   7.966  0.0053  0.0364  0.1408
  519XCA     C6 4671   4.680  12.598   7.723 -0.1175 -0.0607  0.1268
  520XCA    COO 4672  11.598  11.223   8.336  0.0989  0.0639  0.2906
  520XCA     C1 4673  11.704  11.246   7.852 -0.0155 -0.2141 -0.1014
  520XCA     C2 4674  11.756  11.231   7.326  0.0556  0.0926 -0.1845
  520XCA     C3 4675  11.535  11.189   6.994  0.2038  0.2155 -0.0929
  520XCA     C4 4676  11.629  10.924   6.646 -0.0960 -0.0397  0.0897
  520XCA     C5 4677  11.789  10.916   6.223  0.3445  0.1506  0.1430
  520XCA     C6 4678  11.796  11.176   5.888 -0.1815 -0.2078  0.0819
  521XCA    COO 4679  14.240  13.671   8.575  0.1002  0.2844  0.2158
  521XCA     C1 4680  14.156  13.466   8.200 -0.0065  0.2402 -0.0878
  521XCA     C2 4681  14.395  13.654   7.853 -0.0842  0.1159 -0.0885
  521XCA     C3 4682  14.293  13.592   7.360  0.1158 -0.0471 -0.2891
  521XCA     C4 4683  13.886  13.743   7.035  0.0006  0.0366 -0.0023
  521XCA     C5 4684  13.416  13.889   6.865 -0.1370 -0.1470  0.0660
  521XCA     C6 4685  13.032  13.629   6.774  0.0111  0.2041  0.2361
  522PNCE   AM1 4686  10.568  14.093   8.325 -0.0000 -0.0555  0.0606
  522PNCE   AM2 4687  10.305  14.140   8.429  0.1794  0.0199 -0.0522
  522PNCE   T1A 4688  10.449  13.872   7.977  0.2535 -0.0558 -0.0912
  522PNCE   C2A 4689  10.421  13.670   7.591 -0.5772  0.0900 -0.1962
  522PNCE   C3A 4690  10.332  13.620   7.197  0.1672  0.0835 -0.1458
  522PNCE   C1B 4691  10.011  13.920   8.270 -0.1552 -0.0687  0.3190
  522PNCE   C2B 4692   9.609  14.046   8.037 -0.1324  0.1610 -0.0290
  522PNCE   C3B 4693   9.315  13.976   7.662  0.1953 -0.2217 -0.0975
  522PNCE   D4B 4694   9.260  14.016   7.261 -0.0795  0.1421  0.1965
  522PNCE   C5B 4695   9.506  13.970   6.866  0.0728  0.3076  0.1037
  522PNCE   C6B 4696   9.835  14.279   6.681  0.3488 -0.0765  0.1213
  523CHOL   ROH 4697   5.168   1.703   6.524 -0.4267  0.2153  0.1274
  523CHOL    R1 4698   5.169   1.977   6.597 -0.1710  0.2535 -0.0113
  523CHOL    R2 4699   5.387   2.097   6.717 -0.0211  0.1365 -0.1703
  523CHOL    R3 4700   5.363   2.273   6.511  0.0337  0.0575 -0.2462
  523CHOL    R4 4701   5.546   2.404   6.699 -0.0609  0.1557 -0.2116
  523CHOL    R5 4702   5.363   2.488   6.616 -0.0449  0.0974 -0.3194
  523CHOL    C1 4703   5.616   2.747   6.495 -0.0325  0.0928 -0.3070
  523CHOL    C2 4704   5.863   2.896   6.286 -0.1404 -0.0965 -0.0289
  524XCA    COO 4705  13.176   0.561   4.743 -0.0184  0.4622 -0.2218
  524XCA     C1 4706  13.408   0.298   5.052 -0.1758  0.0879  0.1887
  524XCA     C2 4707  13.588  -0.135   5.100  0.3600  0.0228  0.0173
  524XCA     C3 4708  13.457  -0.424   5.352  0.1373 -0.1067  0.0165
  524XCA     C4 4709  13.253  -0.714   5.694 -0.0670  0.2119  0.0279
  524XCA     C5 4710  12.797  -0.898   5.669  0.0564  0.0969  0.0093
  524XCA     C6 4711  12.425  -1.161   5.506  0.0290 -0.1165 -0.1043
  525CHOL   ROH 4712   9.651   4.810   6.194  0.0601 -0.0486  0.0872
  525CHOL    R1 4713   9.704   4.901   6.457  0.1079  0.2771 -0.0305
  525CHOL    R2 4714   9.640   5.156   6.542 -0.3967  0.2078 -0.1741
  525CHOL    R3 4715   9.509   5.022   6.739  0.0902  0.0484  0.0577
  525CHOL    R4 4716   9.544   5.293   6.844 -0.1382  0.1220 -0.0493
  525CHOL    R5 4717   9.603   5.108   6.942  0.2803  0.2195 -0.0976
  525CHOL    C1 4718   9.364   5.247   7.205  0.4693 -0.0777  0.2409
  525CHOL    C2 4719   9.281   5.258   7.509 -0.2139  0.0260 -0.1234
  526PNCE   AM1 4720   9.105   8.744   8.473 -0.2323 -0.2604 -0.0196
  526PNCE   AM2 4721   8.807   8.731   8.629 -0.4935  0.0181 -0.0953
  526PNCE   T1A 4722   9.323   8.409   8.286 -0.4295  0.1860 -0.1334
  526PNCE   C2A 4723   9.366   8.019   8.051  0.1681  0.0086 -0.2575
  526PNCE   C3A 4724   9.554   7.512   8.082  0.3092 -0.0425  0.2234
  526PNCE   C1B 4725   8.650   8.521   8.233 -0.1806 -0.0993  0.0118
  526PNCE   C2B 4726   8.618   8.613   7.790 -0.2791  0.0700 -0.0442
  526PNCE   C3B 4727   8.738   8.348   7.438  0.0599  0.0870 -0.1199
  526PNCE   D4B 4728   8.627   7.859   7.365  0.0483 -0.1716  0.0809
  526PNCE   C5B 4729   8.636   7.672   7.677 -0.0280 -0.2572  0.3568
  526PNCE   C6B 4730   8.468   7.524   8.019  0.4643 -0.1922 -0.0967
  527XCA    COO 4731  10.113  14.309   7.961 -0.0109  0.3565 -0.0517
  527XCA     C1 4732   9.767  14.479   7.654  0.0407  0.0463  0.1142
  527XCA     C2 4733   9.374  14.481   7.533 -0.2207 -0.0844 -0.0281
  527XCA     C3 4734   9.059  14.455   7.247 -0.1594 -0.0456  0.0461
  527XCA     C4 4735   8.827  14.655   6.914 -0.4430 -0.1922 -0.3264
  527XCA     C5 4736   8.466  14.671   6.660  0.0528 -0.0884  0.4270
  527XCA     C6 4737   8.262  14.945   6.520  0.1131 -0.1063  0.3303
  528CHOL   ROH 4738   4.682  10.441   5.756  0.2576  0.1303 -0.1526
  528CHOL    R1 4739   4.550  10.499   5.999  0.0815 -0.0571 -0.1998
  528CHOL    R2 4740   4.506  10.308   6.194  0.2790 -0.1283 -0.2135
  528CHOL    R3 4741   4.632  10.488   6.353 -0.0287  0.0561 -0.1727
  528CHOL    R4 4742   4.457  10.339   6.535  0.0868 -0.1335 -0.2399
  528CHOL    R5 4743   4.465  10.556   6.511 -0.1808 -0.1324 -0.2598
  528CHOL    C1 4744   4.546  10.527   6.883 -0.3141  0.0366 -0.2170
  528CHOL    C2 4745   4.431  10.502   7.237 -0.0789  0.0774 -0.0088
  529XCA    COO 4746   9.007   8.599   5.199 -0.0247 -0.1920  0.0029
  529XCA     C1 4747   8.894   8.942   5.458 -0.2694  0.2143  0.2267
  529XCA     C2 4748   9.005   9.072   5.839 -0.0211 -0.1766  0.2190
  529XCA     C3 4749   8.986   9.322   6.247  0.0835  0.0046 -0.0306
  529XCA     C4 4750   8.950   9.711   6.372  0.2512  0.0670 -0.4488
  529XCA     C5 4751   9.057  10.198   6.378  0.0216 -0.3642 -0.1791
  529XCA     C6 4752   8.937  10.714   6.363  0.0669 -0.1983 -0.2707
  530PNCE   AM1 4753   1.990   3.014   8.472  0.2281 -0.0609 -0.0777
  530PNCE   AM2 4754   2.155   2.685   8.605 -0.2055  0.3905  0.3503
  530PNCE   T1A 4755   1.909   3.011   8.112  0.0813  0.2101 -0.1685
  530PNCE   C2A 4756   1.839   3.100   7.748 -0.2049 -0.0390 -0.1295
  530PNCE   C3A 4757   1.999   3.244   7.365  0.0917  0.3536 -0.2372
  530PNCE   C1B 4758   2.032   2.496   8.220 -0.1080  0.0836  0.2685
  530PNCE   C2B 4759   1.969   2.446   7.696 -0.1203 -0.5306 -0.1230
  530PNCE   C3B 4760   2.090   2.318   7.347 -0.2919 -0.2519 -0.0345
  530PNCE   D4B 4761   2.126   2.126   6.955  0.0965  0.0165 -0.2958
  530PNCE   C5B 4762   2.177   2.477   6.693 -0.3143  0.1398 -0.0145
  530PNCE   C6B 4763   2.142   2.768   6.399 -0.1617 -0.2593 -0.3503
  531CHOL   ROH 4764   8.091  12.200   5.493 -0.2297  0.0723  0.1532
  531CHOL    R1 4765   8.046  12.345   5.731 -0.0888 -0.0903  0.2825
  531CHOL    R2 4766   8.142  12.262   5.977  0.4049 -0.0569  0.1146
  531CHOL    R3 4767   8.251  12.511   5.982  0.0530  0.1039  0.0423
  531CHOL    R4 4768   8.196  12.448   6.263  0.4477 -0.0369  0.0928
  531CHOL    R5 4769   8.130  12.625   6.154  0.0717 -0.1056  0.1967
  531CHOL    C1 4770   8.329  12.791   6.434  0.1422  0.1259  0.0122
  531CHOL    C2 4771   8.229  12.889   6.808  0.0473 -0.1969  0.0314
  532PNCE   AM1 4772   3.205   9.609   9.048  0.0187 -0.1696 -0.0827
  532PNCE   AM2 4773   3.052   9.415   9.334  0.0009  0.0701  0.1285
  532PNCE   T1A 4774   3.325   9.515   8.650  0.2208  0.2734 -0.1117
  532PNCE   C2A 4775   3.285   9.426   8.177 -0.2029  0.1478 -0.0055
  532PNCE   C3A 4776   3.549   9.485   7.875  0.1682 -0.1370 -0.1205
  532PNCE   C1B 4777   2.818   9.340   8.934  0.0862  0.3125 -0.1960
  532PNCE   C2B 4778   2.783   9.464   8.536 -0.1789  0.2598  0.1428
  532PNCE   C3B 4779   2.850   9.563   8.153 -0.0892  0.0727 -0.0790
  532PNCE   D4B 4780   3.020   9.761   7.783  0.0316  0.0020 -0.0557
  532PNCE   C5B 4781   3.352   9.540   7.443 -0.0405  0.0005 -0.1260
  532PNCE   C6B 4782   3.428   9.345   7.145  0.0795 -0.0162  0.1781
  533PNCE   AM1 4783  10.183  11.815   7.710  0.2930 -0.1093 -0.0346
  533PNCE   AM2 4784   9.840  11.684   7.881  0.0448  0.1463  0.0350
  533PNCE   T1A 4785  10.369  11.683   7.349 -0.2259  0.0794 -0.3584
  533PNCE   C2A 4786  10.429  11.638   6.937  0.1383  0.2817 -0.0850
  533PNCE   C3A 4787  10.733  11.672   6.536 -0.1928 -0.2916 -0.2286
  533PNCE   C1B 4788   9.626  11.550   7.488 -0.2226  0.2398 -0.3013
  533PNCE   C2B 4789   9.387  11.308   7.208  0.0972  0.0682 -0.3733
  533PNCE   C3B 4790   8.946  11.155   7.107  0.2313  0.0270 -0.1388
  533PNCE   D4B 4791   8.723  10.918   6.754  0.2397 -0.1143 -0.1737
  533PNCE   C5B 4792   8.395  10.938   6.576  0.0767  0.2509  0.1778
  533PNCE   C6B 4793   8.071  11.024   6.286  0.1599 -0.1468 -0.1857
  534PNCE   AM1 4794   2.564  14.487   9.013 -0.1818  0.0080 -0.2688
  534PNCE   AM2 4795   2.304  14.518   8.883 -0.2282 -0.2905  0.2898
  534PNCE   T1A 4796   2.724  14.432   8.543  0.1322 -0.0626 -0.1294
  534PNCE   C2A 4797   3.029  14.095   8.233  0.0792  0.1828  0.3605
  534PNCE   C3A 4798   3.423  13.944   8.388  0.0991 -0.2340 -0.1840
  534PNCE   C1B 4799   2.298  14.538   8.391 -0.0161  0.3555  0.0965
  534PNCE   C2B 4800   2.431  14.321   8.112  0.2345 -0.2021 -0.0669
  534PNCE   C3B 4801   2.189  14.033   8.014 -0.1468  0.0145  0.0806
  534PNCE   D4B 4802   2.009  13.920   7.704 -0.2751 -0.0002  0.0023
  534PNCE   C5B 4803   2.015  14.089   7.311 -0.0643 -0.0584  0.0779
  534PNCE   C6B 4804   2.140  14.233   6.948 -0.1075 -0.0904  0.1423
  535PNCE   AM1 4805   9.618   6.020   8.778  0.3566 -0.0340 -0.3245
  535PNCE   AM2 4806   9.765   6.205   8.828 -0.1713 -0.3600  0.1812
  535PNCE   T1A 4807   9.585   6.161   8.378  0.1337 -0.0444  0.1858
  535PNCE   C2A 4808   9.718   6.144   7.943 -0.0583  0.1729  0.1942
  535PNCE   C3A 4809   9.624   6.036   7.541 -0.2565  0.2088 -0.0483
  535PNCE   C1B 4810  10.039   6.357   8.539 -0.0111 -0.0922  0.0805
  535PNCE   C2B 4811  10.044   6.688   8.135  0.0899  0.0099  0.2055
  535PNCE   C3B 4812  10.251   7.050   7.860 -0.4137  0.1879  0.1950
  535PNCE   D4B 4813  10.228   7.044   7.358 -0.0072  0.0509 -0.2471
  535PNCE   C5B 4814   9.957   7.297   7.233  0.2463  0.0171 -0.0698
  535PNCE   C6B 4815   9.786   7.707   7.204  0.1219 -0.1117 -0.0537
  536CHOL   ROH 4816   0.614   9.429   5.743 -0.2060 -0.0222 -0.1129
  536CHOL    R1 4817   0.519   9.672   5.854 -0.1991  0.0166 -0.1902
  536CHOL    R2 4818   0.265   9.769   5.804 -0.3013 -0.1391  0.0072
  536CHOL    R3 4819   0.249   9.773   6.076 -0.0114  0.0513  0.0263
  536CHOL    R4 4820   0.103  10.012   5.989 -0.2014 -0.0715  0.0067
  536CHOL    R5 4821   0.266  10.005   6.133 -0.0422  0.1008 -0.1611
  536CHOL    C1 4822  -0.008  10.157   6.351  0.1289  0.1465  0.0243
  536CHOL    C2 4823  -0.062  10.461   6.711  0.0921 -0.1447  0.2847
  537CHOL   ROH 4824   0.527  13.996   4.346  0.0169  0.0274  0.0316
  537CHOL    R1 4825   0.503  13.967   4.626  0.0079  0.0085  0.0286
  537CHOL    R2 4826   0.646  14.123   4.804 -0.0997  0.0877  0.0432
  537CHOL    R3 4827   0.399  14.176   4.905 -0.1396 -0.0575  0.0243
  537CHOL    R4 4828   0.582  14.226   5.128 -0.1609  0.2435 -0.0171
  537CHOL    R5 4829   0.408  14.095   5.131 -0.0522  0.0933  0.0780
  537CHOL    C1 4830   0.313  14.335   5.412 -0.2340  0.1981 -0.0699
  537CHOL    C2 4831   0.208  14.223   5.817  0.2719 -0.1957  0.1630
  538PNCE   AM1 4832  12.047   1.553   8.707 -0.0964  0.0955  0.2532
  538PNCE   AM2 4833  12.174   1.606   8.472  0.1160 -0.1909  0.5871
  538PNCE   T1A 4834  11.759   1.522   8.270  0.3053  0.3680  0.1742
  538PNCE   C2A 4835  11.333   1.713   8.317 -0.3261 -0.1594  0.0497
  538PNCE   C3A 4836  10.973   1.575   8.342  0.2506  0.1598  0.0952
  538PNCE   C1B 4837  12.345   1.810   8.019 -0.1272  0.2030 -0.0384
  538PNCE   C2B 4838  12.498   1.689   7.572 -0.1347 -0.2867 -0.0465
  538PNCE   C3B 4839  12.792   1.657   7.174  0.1976 -0.2009 -0.1113
  538PNCE   D4B 4840  12.562   1.616   6.937  0.1073 -0.1997 -0.0018
  538PNCE   C5B 4841  12.764   1.480   6.521  0.1961  0.0403 -0.0514
  538PNCE   C6B 4842  12.572   1.380   6.116  0.0753  0.1893  0.4228
  539XCA    COO 4843   0.065   8.812   5.472 -0.0416  0.0972 -0.0359
  539XCA     C1 4844  -0.031   8.940   5.839  0.1371  0.0234  0.1580
  539XCA     C2 4845  -0.198   9.052   6.262 -0.0846  0.0955 -0.0541
  539XCA     C3 4846  -0.445   9.006   6.714  0.2851 -0.0659 -0.1557
  539XCA     C4 4847  -0.343   9.205   7.040 -0.2705  0.1151  0.0932
  539XCA     C5 4848  -0.250   9.465   7.334  0.2489  0.3944 -0.1606
  539XCA     C6 4849  -0.409   9.546   7.770  0.0813  0.0425 -0.1983
  540CHOL   ROH 4850   3.352   9.122   8.978 -0.0531  0.0603  0.0049
  540CHOL    R1 4851   3.326   9.035   8.710  0.0098  0.0694 -0.0035
  540CHOL    R2 4852   3.112   8.883   8.623  0.0797 -0.0061 -0.0362
  540CHOL    R3 4853   3.088   9.081   8.439  0.0216 -0.0040 -0.0278
  540CHOL    R4 4854   2.946   8.854   8.322  0.1014 -0.0497 -0.0447
  540CHOL    R5 4855   3.105   8.969   8.228  0.0691  0.0092 -0.0332
  540CHOL    C1 4856   2.826   9.023   7.973  0.0596 -0.0732 -0.0418
  540CHOL    C2 4857   2.567   9.259   7.705  0.0377 -0.4548 -0.0338
  541PNCE   AM1 4858  15.056  14.879   8.311  0.1438  0.1169  0.4880
  541PNCE   AM2 4859  15.377  14.877   8.331  0.2985  0.2114 -0.1570
  541PNCE   T1A 4860  15.164  15.009   7.935 -0.0145 -0.1614  0.0526
  541PNCE   C2A 4861  15.318  15.015   7.533 -0.2363  0.0571  0.1169
  541PNCE   C3A 4862  15.274  15.175   7.087 -0.0501 -0.0752 -0.1821
  541PNCE   C1B 4863  15.362  14.560   8.018  0.0661  0.3052 -0.0774
  541PNCE   C2B 4864  15.475  14.553   7.511  0.2250  0.0485  0.0847
  541PNCE   C3B 4865  15.307  14.288   7.200  0.1372 -0.1128  0.0841
  541PNCE   D4B 4866  15.095  13.925   6.894 -0.1539  0.0756 -0.0622
  541PNCE   C5B 4867  14.611  14.013   6.991 -0.0169 -0.0189  0.1882
  541PNCE   C6B 4868  14.262  14.059   7.201 -0.5324  0.1504 -0.0417
  542PNCE   AM1 4869  12.969   1.899   8.814 -0.1553  0.2406  0.1472
  542PNCE   AM2 4870  12.934   1.831   8.416  0.1956 -0.1312  0.0621
  542PNCE   T1A 4871  13.342   2.010   8.707  0.1132 -0.1819 -0.0694
  542PNCE   C2A 4872  13.462   2.353   8.478  0.0404 -0.2976  0.4079
  542PNCE   C3A 4873  13.621   2.801   8.347  0.0778  0.1077  0.0566
  542PNCE   C1B 4874  13.108   1.510   8.262 -0.0590 -0.0309 -0.3975
  542PNCE   C2B 4875  13.334   1.371   7.894 -0.1002 -0.0199  0.2434
  542PNCE   C3B 4876  13.772   1.250   7.979 -0.3206 -0.0874  0.0459
  542PNCE   D4B 4877  14.116   0.980   8.141 -0.0106  0.2330  0.0815
  542PNCE   C5B 4878  14.315   0.887   7.753  0.1153  0.1855 -0.0354
  542PNCE   C6B 4879  14.536   0.836   7.436 -0.1673  0.0057 -0.4561
  543PNCE   AM1 4880   6.664   9.905   9.166  0.2247 -0.2137  0.0885
  543PNCE   AM2 4881   6.866   9.598   9.071  0.1206  0.2261 -0.0352
  543PNCE   T1A 4882   6.270   9.593   9.029 -0.0894  0.0306 -0.1434
  543PNCE   C2A 4883   6.002   9.227   9.176  0.3405  0.2695 -0.0973
  543PNCE   C3A 4884   5.838   9.063   8.770 -0.1309  0.0574 -0.2875
  543PNCE   C1B 4885   6.992   9.637   8.561 -0.0729 -0.1159 -0.3102
  543PNCE   C2B 4886   7.330   9.326   8.490 -0.0244  0.1300  0.1155
  543PNCE   C3B 4887   7.303   9.065   8.232 -0.1409 -0.1200  0.1858
  543PNCE   D4B 4888   7.017   9.110   7.867  0.1236  0.1863 -0.2984
  543PNCE   C5B 4889   6.980   8.833   7.476 -0.1685 -0.3818  0.0425
  543PNCE   C6B 4890   6.793   8.976   7.085 -0.2654  0.0515 -0.2870
  544CHOL   ROH 4891   6.372  15.406   5.748  0.1322 -0.1126 -0.0224
  544CHOL    R1 4892   6.401  15.671   5.842  0.1414 -0.0687 -0.1478
  544CHOL    R2 4893   6.412  15.734   6.111 -0.0272  0.0750 -0.1712
  544CHOL    R3 4894   6.643  15.858   6.039  0.0583 -0.0308 -0.0813
  544CHOL    R4 4895   6.589  15.954   6.310 -0.0478  0.0601 -0.1365
  544CHOL    R5 4896   6.626  16.077   6.134  0.0918  0.0003 -0.1485
  544CHOL    C1 4897   6.910  16.198   6.359  0.0207 -0.0478 -0.0319
  544CHOL    C2 4898   7.070  16.514   6.509 -0.2965  0.1597 -0.1781
  545PNCE   AM1 4899  10.130   0.641   8.589  0.0540 -0.2846 -0.0201
  545PNCE   AM2 4900  10.352   0.470   8.643  0.4249  0.0107 -0.0899
  545PNCE   T1A 4901   9.983   0.802   8.176  0.2097 -0.3999  0.1687
  545PNCE   C2A 4902   9.721   0.946   7.881  0.1713 -0.3118  0.1181
  545PNCE   C3A 4903   9.518   1.196   7.535 -0.2470  0.0488 -0.1907
  545PNCE   C1B 4904  10.745   0.400   8.529 -0.1635  0.1491  0.2356
  545PNCE   C2B 4905  11.019   0.169   8.191 -0.0635  0.2252  0.0597
  545PNCE   C3B 4906  11.303   0.219   7.995  0.0339  0.0471 -0.1983
  545PNCE   D4B 4907  11.094   0.424   7.631 -0.1811 -0.0671  0.2042
  545PNCE   C5B 4908  11.299   0.476   7.130 -0.1116 -0.3184 -0.0301
  545PNCE   C6B 4909  11.578   0.843   7.062  0.2218 -0.1100 -0.0337
  546PNCE   AM1 4910   7.051  12.115   8.877 -0.0781 -0.2928 -0.0835
  546PNCE   AM2 4911   6.834  12.233   8.666 -0.0294 -0.2556  0.1384
  546PNCE   T1A 4912   7.296  12.282   8.432  0.1256  0.1927  0.0708
  546PNCE   C2A 4913   7.561  12.419   8.152 -0.2418  0.0386 -0.0748
  546PNCE   C3A 4914   7.561  12.580   7.792  0.0048  0.3679  0.1285
  546PNCE   C1B 4915   6.410  12.031   8.552 -0.2054 -0.0511  0.2251
  546PNCE   C2B 4916   6.085  11.875   8.375 -0.0686 -0.1147  0.1931
  546PNCE   C3B 4917   6.197  11.615   8.011 -0.0314 -0.4705 -0.1741
  546PNCE   D4B 4918   6.184  11.237   7.758  0.1310 -0.1130 -0.1912
  546PNCE   C5B 4919   6.273  11.138   7.367  0.4985 -0.0247  0.0862
  546PNCE   C6B 4920   6.668  11.011   7.147  0.2082  0.1964 -0.1189
  547PNCE   AM1 4921  13.202   9.377   8.419 -0.1724  0.0292 -0.1644
  547PNCE   AM2 4922  13.335   9.364   8.173  0.0689  0.1457 -0.0319
  547PNCE   T1A 4923  13.717   9.444   8.528 -0.1666 -0.0770  0.0944
  547PNCE   C2A 4924  14.022   9.415   8.384 -0.1651 -0.1351  0.0266
  547PNCE   C3A 4925  14.429   9.442   8.286 -0.2081 -0.1072 -0.1780
  547PNCE   C1B 4926  13.463   9.257   7.869 -0.2166 -0.0388 -0.1476
  547PNCE   C2B 4927  13.638   9.464   7.509  0.1702 -0.0158 -0.1348
  547PNCE   C3B 4928  13.736   9.696   7.166  0.0956 -0.2322 -0.0224
  547PNCE   D4B 4929  13.754  10.019   6.794 -0.0932  0.0475 -0.0172
  547PNCE   C5B 4930  13.594   9.878   6.432  0.2374  0.0165 -0.0369
  547PNCE   C6B 4931  13.315   9.813   6.062 -0.0867  0.0146 -0.1558
  548PNCE   AM1 4932  11.036   1.167   8.558  0.3467 -0.1764  0.1833
  548PNCE   AM2 4933  10.698   0.941   8.589  0.3861 -0.1601 -0.1974
  548PNCE   T1A 4934  10.994   1.280   8.951  0.5781  0.0422  0.0568
  548PNCE   C2A 4935  10.811   1.561   9.252 -0.0833 -0.0032  0.1071
  548PNCE   C3A 4936  10.477   1.770   9.366 -0.0831 -0.1063 -0.1038
  548PNCE   C1B 4937  10.497   1.212   8.218 -0.1524 -0.4364 -0.2834
  548PNCE   C2B 4938  10.518   1.376   7.751 -0.3353  0.0617 -0.1891
  548PNCE   C3B 4939  10.523   1.482   7.313  0.0578 -0.0643 -0.1935
  548PNCE   D4B 4940  10.638   1.880   7.002 -0.1195 -0.2481  0.2271
  548PNCE   C5B 4941  10.842   1.790   6.625 -0.2699  0.0100 -0.1753
  548PNCE   C6B 4942  11.063   1.809   6.223 -0.1622  0.2381 -0.6346
  549CHOL   ROH 4943  14.262  10.681   8.426 -0.0378 -0.0363  0.0611
  549CHOL    R1 4944  14.270  10.837   8.190  0.0103 -0.1085  0.0133
  549CHOL    R2 4945  14.375  10.743   7.953 -0.0332 -0.2199  0.0316
  549CHOL    R3 4946  14.133  10.815   7.854 -0.0132 -0.1611  0.0280
  549CHOL    R4 4947  14.299  10.772   7.617  0.0443  0.0607  0.0364
  549CHOL    R5 4948  14.184  10.950   7.663  0.0168  0.0056  0.1573
  549CHOL    C1 4949  14.027  10.856   7.328  0.1080  0.2792  0.0358
  549CHOL    C2 4950  13.952  11.058   7.157 -0.2093  0.3146 -0.3030
  550XCA    COO 4951   8.016   4.734   8.766 -0.3024 -0.0540 -0.0780
  550XCA     C1 4952   7.858   4.702   8.333  0.1633 -0.0707  0.0524
  550XCA     C2 4953   7.842   4.700   7.848  0.0840  0.0731  0.0570
  550XCA     C3 4954   7.634   4.904   7.541 -0.1066 -0.1034  0.0391
  550XCA     C4 4955   7.288   4.963   7.500  0.1630 -0.0975 -0.1917
  550XCA     C5 4956   6.818   4.879   7.234 -0.1147  0.3649 -0.3398
  550XCA     C6 4957   6.701   5.033   6.794  0.1198 -0.0564  0.0096
  551PNCE   AM1 4958   1.808  12.698   8.612  0.1250  0.0031 -0.0341
  551PNCE   AM2 4959   1.560  13.020   8.647 -0.1749 -0.0343  0.1064
  551PNCE   T1A 4960   2.080  12.772   8.235  0.1264 -0.0800 -0.2519
  551PNCE   C2A 4961   2.247  12.946   7.894  0.0660  0.1914  0.2434
  551PNCE   C3A 4962   2.651  13.142   7.861 -0.1584 -0.0477  0.0227
  551PNCE   C1B 4963   1.866  13.211   8.400 -0.1106  0.0303  0.0053
  551PNCE   C2B 4964   2.175  13.349   8.123 -0.1252  0.4470  0.2740
  551PNCE   C3B 4965   2.366  13.535   7.778  0.2051 -0.2862 -0.2719
  551PNCE   D4B 4966   2.447  13.823   7.495 -0.0386 -0.1168  0.2522
  551PNCE   C5B 4967   2.411  14.264   7.551 -0.0007  0.0556 -0.1492
  551PNCE   C6B 4968   2.706  14.708   7.499 -0.2062 -0.0576 -0.2370
  552XCA    COO 4969  13.857  13.965   8.327 -0.0674  0.0332  0.0108
  552XCA     C1 4970  13.662  13.614   8.051  0.0439  0.2109  0.0263
  552XCA     C2 4971  13.623  13.383   7.594 -0.2506  0.2884 -0.0923
  552XCA     C3 4972  13.908  13.226   7.318 -0.0437 -0.0856 -0.1539
  552XCA     C4 4973  14.126  13.292   6.976 -0.1891  0.0851 -0.2649
  552XCA     C5 4974  14.414  13.593   6.793 -0.2268  0.0352  0.1318
  552XCA     C6 4975  14.554  13.647   6.482  0.0212  0.1022  0.1418
  553PNCE   AM1 4976   2.512   5.823   9.366 -0.3534 -0.0521 -0.2095
  553PNCE   AM2 4977   2.311   5.579   9.237 -0.0282 -0.1946  0.1284
  553PNCE   T1A 4978   2.813   6.062   9.348  0.0278 -0.0176  0.1789
  553PNCE   C2A 4979   3.182   6.327   9.330 -0.1257 -0.2752  0.3102
  553PNCE   C3A 4980   3.505   6.634   9.134 -0.0720 -0.0997 -0.3637
  553PNCE   C1B 4981   2.460   5.838   8.892 -0.2479 -0.0659  0.0117
  553PNCE   C2B 4982   2.796   6.176   8.703  0.3760  0.1609 -0.2759
  553PNCE   C3B 4983   3.285   6.469   8.666  0.1803 -0.1744  0.2997
  553PNCE   D4B 4984   3.615   6.667   8.545 -0.0945 -0.2380 -0.1906
  553PNCE   C5B 4985   3.851   6.880   8.865  0.1588  0.3038 -0.0929
  553PNCE   C6B 4986   4.096   6.978   9.150  0.0662 -0.2408 -0.0792
  554CHOL   ROH 4987   4.086   8.462   9.068 -0.0576  0.0243 -0.0144
  554CHOL    R1 4988   3.937   8.452   8.827 -0.0371 -0.0435 -0.0246
  554CHOL    R2 4989   4.051   8.503   8.580 -0.0285 -0.0601 -0.0233
  554CHOL    R3 4990   3.946   8.259   8.518  0.0249 -0.0907  0.0060
  554CHOL    R4 4991   4.048   8.363   8.264 -0.1726 -0.0112 -0.0442
  554CHOL    R5 4992   3.846   8.290   8.303 -0.1223 -0.0941  0.0720
  554CHOL    C1 4993   3.948   8.054   8.022 -0.2064 -0.0113 -0.0289
  554CHOL    C2 4994   4.001   8.178   7.657  0.2322 -0.2538  0.0367
  555CHOL   ROH 4995   1.489   0.047   8.202  0.0291 -0.0635 -0.0968
  555CHOL    R1 4996   1.482   0.181   7.953 -0.0623  0.0447 -0.0368
  555CHOL    R2 4997   1.398   0.443   7.927  0.2477  0.1680  0.1590
  555CHOL    R3 4998   1.639   0.475   7.805  0.1652 -0.0980 -0.0837
  555CHOL    R4 4999   1.449   0.615   7.632  0.1644  0.2834  0.2109
  555CHOL    R5 5000   1.589   0.460   7.571 -0.1158  0.1167 -0.0437
  555CHOL    C1 5001   1.705   0.745   7.345  0.0384  0.1008  0.0133
  555CHOL    C2 5002   1.910   1.158   7.258  0.0842  0.0679  0.1106
  556CHOL   ROH 5003   2.179   8.940   5.591  0.0425 -0.2976 -0.0060
  556CHOL    R1 5004   2.105   8.884   5.858  0.0045 -0.0952  0.0280
  556CHOL    R2 5005   2.045   9.082   6.041 -0.0853  0.0436 -0.1463
  556CHOL    R3 5006   1.815   8.941   6.070 -0.0532  0.0053 -0.0782
  556CHOL    R4 5007   1.868   9.053   6.336 -0.0535  0.1009 -0.1215
  556CHOL    R5 5008   1.832   8.843   6.288 -0.0144  0.0797 -0.0492
  556CHOL    C1 5009   1.548   8.904   6.535 -0.0048  0.0984 -0.0432
  556CHOL    C2 5010   1.194   8.912   6.769  0.2385 -0.3285  0.1453
  557PNCE   AM1 5011  12.556   2.675   8.503  0.1055  0.0814  0.0095
  557PNCE   AM2 5012  12.243   2.627   8.535 -0.0247  0.3295 -0.2347
  557PNCE   T1A 5013  12.613   2.650   7.969  0.0296  0.1234  0.0006
  557PNCE   C2A 5014  12.661   2.497   7.540 -0.1544 -0.1289 -0.1720
  557PNCE   C3A 5015  12.749   2.658   7.101  0.1690  0.0304  0.2503
  557PNCE   C1B 5016  12.165   2.746   8.125 -0.1880 -0.0957  0.1075
  557PNCE   C2B 5017  12.161   2.869   7.783 -0.2489  0.0885 -0.0098
  557PNCE   C3B 5018  12.222   2.826   7.400  0.2691 -0.1369 -0.2513
  557PNCE   D4B 5019  12.476   3.087   7.104 -0.0187  0.0456 -0.4558
  557PNCE   C5B 5020  12.447   2.848   6.708 -0.2037  0.2018 -0.1506
  557PNCE   C6B 5021  12.442   3.015   6.248 -0.1784  0.2744 -0.0547
  558CHOL   ROH 5022   4.272   6.339   7.676  0.1836  0.0752  0.2431
  558CHOL    R1 5023   4.553   6.358   7.702  0.1863  0.1126  0.1836
  558CHOL    R2 5024   4.715   6.453   7.500  0.1389  0.0320  0.1117
  558CHOL    R3 5025   4.803   6.622   7.693  0.1639  0.1305  0.0158
  558CHOL    R4 5026   5.021   6.614   7.497  0.1656 -0.0185  0.0144
  558CHOL    R5 5027   5.037   6.576   7.711  0.1590  0.1011  0.0406
  558CHOL    C1 5028   5.281   6.868   7.677  0.2049  0.0447 -0.1323
  558CHOL    C2 5029   5.399   7.258   7.706 -0.1935  0.1387 -0.0645
  559PNCE   AM1 5030   1.908  15.029   8.505 -0.1331 -0.1999  0.0072
  559PNCE   AM2 5031   1.603  15.278   8.736  0.0458 -0.1056 -0.2802
  559PNCE   T1A 5032   2.076  15.182   8.011  0.0683  0.0117  0.1643
  559PNCE   C2A 5033   2.407  15.173   7.656 -0.1787 -0.1306  0.2427
  559PNCE   C3A 5034   2.588  15.131   7.336  0.0157  0.0802  0.0090
  559PNCE   C1B 5035   1.626  15.352   8.232  0.0077 -0.2028 -0.2857
  559PNCE   C2B 5036   1.793  15.708   8.018  0.1887 -0.0117  0.2275
  559PNCE   C3B 5037   1.753  15.784   7.652 -0.2007  0.1420  0.1543
  559PNCE   D4B 5038   1.511  15.913   7.418  0.1514  0.0918  0.0182
  559PNCE   C5B 5039   1.686  15.837   6.981 -0.2571  0.2948 -0.0892
  559PNCE   C6B 5040   1.855  15.944   6.611 -0.2766  0.0085  0.0986
  560PNCE   AM1 5041   8.386   6.111   9.489 -0.1379 -0.3389 -0.0970
  560PNCE   AM2 5042   8.299   6.479   9.633  0.1966  0.2339  0.2743
  560PNCE   T1A 5043   8.654   6.149   9.152  0.1337  0.1477 -0.1998
  560PNCE   C2A 5044   8.693   6.079   8.728  0.3080  0.2314  0.1955
  560PNCE   C3A 5045   8.702   5.863   8.384 -0.2158  0.1113 -0.0385
  560PNCE   C1B 5046   8.246   6.627   9.310 -0.0163  0.0347  0.1105
  560PNCE   C2B 5047   8.335   6.688   8.915  0.0338  0.0603  0.1390
  560PNCE   C3B 5048   8.507   6.590   8.539 -0.0366 -0.0107 -0.0207
  560PNCE   D4B 5049   8.638   6.653   8.171 -0.1877  0.2070 -0.1541
  560PNCE   C5B 5050   8.754   6.350   7.895 -0.1361 -0.3828 -0.1692
  560PNCE   C6B 5051   8.633   5.929   7.892 -0.1327 -0.0840 -0.2628
  561PNCE   AM1 5052   3.984   5.290   9.381 -0.0784  0.0376 -0.1626
  561PNCE   AM2 5053   4.172   5.076   9.054  0.1176  0.3311  0.0307
  561PNCE   T1A 5054   4.285   5.609   9.337  0.1362 -0.3368 -0.2418
  561PNCE   C2A 5055   4.369   6.120   9.433  0.2698 -0.0312  0.1811
  561PNCE   C3A 5056   4.483   6.497   9.524 -0.0958  0.0827 -0.2470
  561PNCE   C1B 5057   4.260   5.058   8.623  0.0290  0.2602 -0.0283
  561PNCE   C2B 5058   4.200   5.150   8.161  0.3282 -0.1182  0.2636
  561PNCE   C3B 5059   4.100   5.311   7.746  0.3460  0.0944 -0.0705
  561PNCE   D4B 5060   3.779   5.535   7.570  0.1693 -0.0981  0.0126
  561PNCE   C5B 5061   3.750   5.745   7.286  0.1366  0.1703 -0.1974
  561PNCE   C6B 5062   3.497   6.122   7.121 -0.0352 -0.1689 -0.0441
  562PNCE   AM1 5063   9.445   8.290   4.799  0.0398  0.0693 -0.0982
  562PNCE   AM2 5064   9.585   7.927   4.891  0.2670  0.0549  0.0353
  562PNCE   T1A 5065   9.303   8.196   5.235  0.0397 -0.0529 -0.0774
  562PNCE   C2A 5066   9.278   7.950   5.650  0.1291  0.0697 -0.2682
  562PNCE   C3A 5067   8.930   7.889   5.958  0.2956 -0.1490  0.1189
  562PNCE   C1B 5068   9.751   7.969   5.415 -0.0611 -0.0906 -0.2093
  562PNCE   C2B 5069   9.990   8.026   5.754 -0.2996 -0.4037  0.1685
  562PNCE   C3B 5070  10.162   7.757   5.947 -0.0025  0.2364 -0.2447
  562PNCE   D4B 5071  10.245   7.584   6.360 -0.0768 -0.0997 -0.3301
  562PNCE   C5B 5072  10.493   7.786   6.623  0.1850 -0.0694  0.0852
  562PNCE   C6B 5073  10.770   7.935   6.855 -0.1499  0.5192 -0.0388
  563PNCE   AM1 5074   2.215   0.096   8.591  0.1689 -0.1883 -0.1122
  563PNCE   AM2 5075   1.897   0.142   8.467 -0.1955  0.1265  0.0997
  563PNCE   T1A 5076   2.316  -0.116   8.144  0.0301  0.0380 -0.1818
  563PNCE   C2A 5077   2.229  -0.113   7.698 -0.0163  0.0090  0.5810
  563PNCE   C3A 5078   2.227   0.066   7.253 -0.2685  0.0251 -0.0066
  563PNCE   C1B 5079   2.093   0.249   7.996 -0.0141  0.2547  0.0711
  563PNCE   C2B 5080   2.037   0.417   7.560 -0.4247  0.1570 -0.3222
  563PNCE   C3B 5081   2.148   0.670   7.197  0.1378 -0.3542  0.1662
  563PNCE   D4B 5082   2.122   0.910   6.875 -0.2362  0.0855  0.1571
  563PNCE   C5B 5083   1.920   0.662   6.568 -0.2491  0.0458 -0.1793
  563PNCE   C6B 5084   1.527   0.570   6.476  0.3181 -0.0548 -0.0644
  564PNCE   AM1 5085   3.432   1.132   7.056  0.0196  0.2111 -0.0245
  564PNCE   AM2 5086   3.269   1.058   7.269 -0.1423  0.1754  0.1633
  564PNCE   T1A 5087   3.272   1.290   6.617  0.0667  0.3277 -0.2595
  564PNCE   C2A 5088   3.184   1.359   6.251  0.1708  0.1038 -0.0785
  564PNCE   C3A 5089   3.620   1.392   5.884  0.0992  0.1484  0.0976
  564PNCE   C1B 5090   3.626   0.768   7.328  0.2751  0.2268 -0.1761
  564PNCE   C2B 5091   3.753   0.532   6.903 -0.2799 -0.2383 -0.0511
  564PNCE   C3B 5092   3.548   0.230   6.722  0.0286 -0.1569 -0.1308
  564PNCE   D4B 5093   3.200   0.241   6.473  0.0588 -0.1098 -0.1180
  564PNCE   C5B 5094   3.268  -0.117   6.245 -0.1823  0.2496 -0.0527
  564PNCE   C6B 5095   3.053  -0.432   6.003 -0.2047 -0.2651 -0.1043
  565CHOL   ROH 5096   7.631   6.689   5.249 -0.0382 -0.0198  0.1003
  565CHOL    R1 5097   7.763   6.645   5.495  0.0135 -0.0223  0.0717
  565CHOL    R2 5098   8.013   6.750   5.550  0.0033  0.0158  0.0378
  565CHOL    R3 5099   7.886   6.850   5.769  0.0261 -0.0302  0.0725
  565CHOL    R4 5100   8.117   6.705   5.877  0.1981  0.1822  0.0007
  565CHOL    R5 5101   7.909   6.678   5.935  0.2446  0.0277  0.1070
  565CHOL    C1 5102   8.059   6.773   6.272  0.3328  0.2359  0.0117
  565CHOL    C2 5103   8.156   6.384   6.276  0.0975  0.1963 -0.0791
  566CHOL   ROH 5104  13.557   8.319   7.785  0.0800 -0.2497 -0.0323
  566CHOL    R1 5105  13.349   8.175   7.657  0.0136 -0.1842  0.0006
  566CHOL    R2 5106  13.084   8.251   7.671  0.0426 -0.0792  0.0135
  566CHOL    R3 5107  13.100   8.242   7.400  0.0196 -0.1155  0.0134
  566CHOL    R4 5108  12.813   8.245   7.458  0.0277  0.0335  0.0284
  566CHOL    R5 5109  12.919   8.099   7.335 -0.0539 -0.0310  0.0377
  566CHOL    C1 5110  12.669   8.232   7.079 -0.0026  0.0650  0.0370
  566CHOL    C2 5111  12.381   8.464   6.923  0.3151  0.2565 -0.2367
  567PNCE   AM1 5112   4.684   1.762   8.744  0.1215  0.1029  0.1721
  567PNCE   AM2 5113   4.346   1.902   8.682  0.0068  0.3048  0.0494
  567PNCE   T1A 5114   4.890   1.757   8.276  0.0068 -0.2293  0.1120
  567PNCE   C2A 5115   5.093   1.821   7.858 -0.0525  0.1786 -0.1589
  567PNCE   C3A 5116   5.283   1.945   7.494  0.1694  0.3653 -0.1062
  567PNCE   C1B 5117   4.430   1.618   8.231  0.0331  0.5537  0.1476
  567PNCE   C2B 5118   4.654   1.648   7.812 -0.0539  0.0031  0.2698
  567PNCE   C3B 5119   4.740   1.603   7.359 -0.4081 -0.1418  0.1998
  567PNCE   D4B 5120   4.921   1.534   6.917  0.0379  0.0567 -0.0590
  567PNCE   C5B 5121   5.295   1.220   6.854 -0.1543  0.0104 -0.0351
  567PNCE   C6B 5122   5.150   1.045   6.441  0.0658 -0.0514 -0.0694
  568PNCE   AM1 5123   9.592   3.595   4.354 -0.2781  0.3453 -0.0761
  568PNCE   AM2 5124   9.972   3.471   4.396 -0.1027 -0.1169 -0.1377
  568PNCE   T1A 5125   9.420   3.739   4.811 -0.1450 -0.1490 -0.0341
  568PNCE   C2A 5126   9.447   3.783   5.258 -0.0735  0.1171  0.0852
  568PNCE   C3A 5127   9.579   4.060   5.668 -0.0370 -0.1380 -0.2781
  568PNCE   C1B 5128  10.081   3.726   4.775 -0.1109 -0.1425 -0.3794
  568PNCE   C2B 5129  10.049   3.681   5.235  0.0314  0.1194  0.3740
  568PNCE   C3B 5130  10.032   3.836   5.697 -0.2491  0.0085 -0.0909
  568PNCE   D4B 5131  10.042   4.201   6.063  0.0482  0.1410  0.0654
  568PNCE   C5B 5132  10.080   3.946   6.529  0.3164 -0.1232 -0.1040
  568PNCE   C6B 5133   9.845   3.953   6.810  0.1586  0.0344 -0.3422
  569PNCE   AM1 5134   5.761   5.436   8.853 -0.0400  0.0226 -0.0480
  569PNCE   AM2 5135   6.062   5.364   8.802 -0.0158  0.0213 -0.1888
  569PNCE   T1A 5136   5.431   5.374   8.593  0.3541  0.1465 -0.1555
  569PNCE   C2A 5137   5.336   5.640   8.250  0.5470 -0.2080  0.1812
  569PNCE   C3A 5138   5.022   5.645   7.885 -0.0388  0.1783  0.0296
  569PNCE   C1B 5139   6.101   5.415   8.418  0.1716  0.1330  0.2959
  569PNCE   C2B 5140   6.152   5.422   8.050 -0.1546 -0.0277  0.2733
  569PNCE   C3B 5141   5.906   5.392   7.683 -0.0298  0.1812 -0.0332
  569PNCE   D4B 5142   5.766   5.702   7.461 -0.2764 -0.1565  0.0882
  569PNCE   C5B 5143   5.726   5.803   7.071 -0.0530  0.1865 -0.1614
  569PNCE   C6B 5144   5.919   5.686   6.733 -0.1199  0.0946  0.1082
  570CHOL   ROH 5145   6.874  12.518   8.253  0.2468 -0.0843  0.0959
  570CHOL    R1 5146   6.752  12.291   8.138 -0.0017  0.0053  0.1779
  570CHOL    R2 5147   6.478  12.253   8.138 -0.0657  0.4264 -0.0263
  570CHOL    R3 5148   6.513  12.226   7.870  0.1285  0.1523  0.0225
  570CHOL    R4 5149   6.255  12.097   7.926  0.0117  0.3406 -0.0459
  570CHOL    R5 5150   6.424  12.008   7.821  0.0508  0.1477  0.1662
  570CHOL    C1 5151   6.157  11.981   7.550  0.2391  0.0334 -0.0115
  570CHOL    C2 5152   5.869  11.719   7.584 -0.0181  0.3299  0.0774
  571XCA    COO 5153  10.444  15.324   8.372  0.0629 -0.2270  0.1666
  571XCA     C1 5154  10.474  15.353   7.945 -0.4626  0.1178 -0.2227
  571XCA     C2 5155  10.494  15.373   7.530  0.0793 -0.0299 -0.2099
  571XCA     C3 5156  10.579  15.555   7.132 -0.0831 -0.1270 -0.0307
  571XCA     C4 5157  10.596  15.791   6.746 -0.3931  0.0106  0.0041
  571XCA     C5 5158  10.385  15.934   6.458 -0.1784  0.2325  0.1860
  571XCA     C6 5159  10.414  15.953   6.030  0.1953  0.3179  0.0644
  572PNCE   AM1 5160   9.787  12.094   7.522  0.0231 -0.2004 -0.0735
  572PNCE   AM2 5161   9.531  12.049   7.727  0.1280  0.0817 -0.0694
  572PNCE   T1A 5162   9.643  12.272   7.069  0.2667 -0.2239 -0.1980
  572PNCE   C2A 5163   9.469  12.285   6.610  0.1793 -0.1724 -0.1300
  572PNCE   C3A 5164   9.333  12.062   6.349  0.1565  0.0394 -0.2065
  572PNCE   C1B 5165   9.233  11.753   7.791 -0.0026  0.1474 -0.2305
  572PNCE   C2B 5166   8.976  11.588   7.353 -0.1040 -0.5369  0.0454
  572PNCE   C3B 5167   8.570  11.493   7.333 -0.1255  0.1253  0.2393
  572PNCE   D4B 5168   8.242  11.519   7.221  0.4237 -0.1982  0.2588
  572PNCE   C5B 5169   8.006  11.242   7.084 -0.0191 -0.0358 -0.0025
  572PNCE   C6B 5170   8.111  10.749   6.965 -0.1877 -0.2602 -0.2624
  573CHOL   ROH 5171   2.965   8.232   6.225 -0.2627 -0.0181  0.0778
  573CHOL    R1 5172   2.895   8.074   6.449 -0.2498  0.0470  0.1279
  573CHOL    R2 5173   3.068   8.030   6.660 -0.2170  0.0603  0.1035
  573CHOL    R3 5174   2.861   8.125   6.808 -0.1684  0.1354  0.1234
  573CHOL    R4 5175   2.948   7.883   6.949 -0.2132  0.1281  0.1398
  573CHOL    R5 5176   2.746   7.929   6.882 -0.2111  0.1757  0.1649
  573CHOL    C1 5177   2.684   7.887   7.257 -0.1653  0.2381  0.1795
  573CHOL    C2 5178   2.656   7.520   7.524 -0.0878 -0.1023  0.1006
  574PNCE   AM1 5179  12.162   7.042   8.833 -0.1874  0.1189 -0.3702
  574PNCE   AM2 5180  12.356   6.732   8.832  0.1581  0.0097  0.0264
  574PNCE   T1A 5181  12.063   7.097   8.419 -0.0031  0.0063  0.1487
  574PNCE   C2A 5182  12.193   7.085   8.096  0.1915 -0.4129  0.0549
  574PNCE   C3A 5183  12.428   7.039   7.592 -0.2214  0.1515  0.1262
  574PNCE   C1B 5184  12.419   6.765   8.442 -0.0196 -0.0367  0.0910
  574PNCE   C2B 5185  12.643   6.859   8.077 -0.1447 -0.0509  0.2751
  574PNCE   C3B 5186  12.868   6.776   7.585 -0.0306  0.0949 -0.0654
  574PNCE   D4B 5187  13.164   6.615   7.307  0.1351 -0.1722  0.2212
  574PNCE   C5B 5188  13.583   6.549   7.327 -0.0992 -0.0429 -0.0573
  574PNCE   C6B 5189  13.836   6.267   7.366  0.0393 -0.0875  0.0169
  575PNCE   AM1 5190   3.531   6.486   9.638 -0.1224 -0.0832  0.1053
  575PNCE   AM2 5191   3.287   6.768   9.627 -0.3795  0.2402  0.0838
  575PNCE   T1A 5192   3.950   6.548   9.419 -0.0021 -0.3442  0.1274
  575PNCE   C2A 5193   4.337   6.554   9.049 -0.0126  0.0289 -0.1921
  575PNCE   C3A 5194   4.571   6.535   8.732  0.1756 -0.1477 -0.1058
  575PNCE   C1B 5195   2.962   6.828   9.345  0.0849  0.1052 -0.2349
  575PNCE   C2B 5196   2.899   6.969   8.945  0.4317 -0.0249  0.0139
  575PNCE   C3B 5197   2.640   7.138   8.636  0.0575  0.1503  0.0174
  575PNCE   D4B 5198   2.393   7.391   8.439  0.1761  0.0873  0.3178
  575PNCE   C5B 5199   2.437   7.766   8.293  0.0667  0.1426  0.4430
  575PNCE   C6B 5200   2.236   8.061   8.204 -0.4182  0.0861  0.1581
  576XCA    COO 5201   1.004   8.197   5.661 -0.0562 -0.3518  0.2757
  576XCA     C1 5202   0.931   8.194   6.112  0.0525  0.2585 -0.1740
  576XCA     C2 5203   1.171   7.941   6.495 -0.1200 -0.1801  0.0061
  576XCA     C3 5204   1.253   8.001   6.897 -0.0041  0.2152  0.2630
  576XCA     C4 5205   1.488   8.200   7.242  0.3639  0.1848  0.1171
  576XCA     C5 5206   1.530   8.450   7.577  0.0596  0.1843  0.0843
  576XCA     C6 5207   1.804   8.741   7.516 -0.0040  0.1386 -0.1982
  577XCA    COO 5208   5.900  13.626   8.690 -0.1786 -0.1902 -0.0682
  577XCA     C1 5209   5.538  13.581   8.381  0.0268  0.2490 -0.0292
  577XCA     C2 5210   5.272  13.311   8.286 -0.0259  0.1603  0.0845
  577XCA     C3 5211   5.139  13.049   7.979 -0.0566 -0.2614 -0.1429
  577XCA     C4 5212   5.010  12.969   7.649  0.2127  0.3763 -0.1690
  577XCA     C5 5213   5.139  13.086   7.215 -0.0822 -0.1927  0.0754
  577XCA     C6 5214   5.002  13.027   6.852 -0.0814 -0.1254 -0.3692
  578PNCE   AM1 5215  15.699   4.257   8.751  0.1704  0.3775 -0.0290
  578PNCE   AM2 5216  15.592   3.923   8.753 -0.1022 -0.1044  0.1223
  578PNCE   T1A 5217  15.493   4.395   8.396 -0.4119 -0.1569 -0.3067
  578PNCE   C2A 5218  15.372   4.651   8.068  0.2273 -0.0431  0.2505
  578PNCE   C3A 5219  15.334   4.723   7.709  0.0577 -0.0874  0.0021
  578PNCE   C1B 5220  15.427   3.744   8.344 -0.1116  0.2755  0.1592
  578PNCE   C2B 5221  15.465   3.649   7.869 -0.2486 -0.0465  0.1069
  578PNCE   C3B 5222  15.539   3.590   7.448 -0.3060  0.0254  0.0244
  578PNCE   D4B 5223  15.590   3.909   6.998  0.0655 -0.1896  0.2959
  578PNCE   C5B 5224  15.246   3.923   6.689  0.0521  0.2664  0.0378
  578PNCE   C6B 5225  14.852   3.819   6.556 -0.2006  0.0071  0.0234
  579CHOL   ROH 5226   2.312  12.462   4.756 -0.1514  0.0504 -0.1395
  579CHOL    R1 5227   2.404  12.631   4.963 -0.0321  0.0570 -0.1959
  579CHOL    R2 5228   2.233  12.788   5.115  0.0573  0.0923 -0.1263
  579CHOL    R3 5229   2.353  12.660   5.322  0.1394  0.0926 -0.1740
  579CHOL    R4 5230   2.249  12.907   5.439  0.0510  0.0175 -0.0989
  579CHOL    R5 5231   2.453  12.835   5.451  0.0819  0.1022 -0.1442
  579CHOL    C1 5232   2.370  12.856   5.822  0.1244 -0.0256 -0.1276
  579CHOL    C2 5233   2.636  12.970   6.102 -0.0457  0.1084 -0.1882
  580PNCE   AM1 5234  13.417   1.171   8.423  0.0176 -0.0422  0.0126
  580PNCE   AM2 5235  13.570   0.876   8.413 -0.0103  0.2243 -0.1084
  580PNCE   T1A 5236  13.587   1.531   8.336  0.3102 -0.2385  0.2620
  580PNCE   C2A 5237  13.461   1.898   8.222 -0.5244  0.1065  0.0965
  580PNCE   C3A 5238  13.638   2.408   7.987  0.3394  0.0358 -0.2074
  580PNCE   C1B 5239  13.739   0.722   7.988 -0.0574  0.0868 -0.0035
  580PNCE   C2B 5240  14.017   0.485   7.766 -0.1000 -0.0594 -0.1386
  580PNCE   C3B 5241  13.974   0.396   7.397 -0.0181 -0.2089  0.5404
  580PNCE   D4B 5242  13.721   0.478   6.995  0.0195 -0.0295 -0.0492
  580PNCE   C5B 5243  13.578   0.833   7.156 -0.1926 -0.1138  0.0091
  580PNCE   C6B 5244  13.582   1.253   7.292 -0.1049  0.1124 -0.0840
  581CHOL   ROH 5245   2.421  14.815   7.060 -0.0230 -0.1096 -0.0746
  581CHOL    R1 5246   2.439  14.538   7.118  0.0885 -0.0762  0.0534
  581CHOL    R2 5247   2.589  14.363   6.965 -0.0488 -0.1308 -0.0198
  581CHOL    R3 5248   2.704  14.304   7.204  0.2261  0.0161 -0.1109
  581CHOL    R4 5249   2.787  14.086   7.026 -0.1387 -0.1979 -0.0312
  581CHOL    R5 5250   2.689  14.065   7.220  0.0967  0.0359  0.1203
  581CHOL    C1 5251   3.010  13.869   7.286  0.0671 -0.0990 -0.1233
  581CHOL    C2 5252   3.018  13.537   7.034  0.0458  0.1966 -0.1351
  582CHOL   ROH 5253  15.026  13.954   8.185 -0.1916  0.2351 -0.0907
  582CHOL    R1 5254  14.864  13.901   7.959 -0.0274  0.2882 -0.2228
  582CHOL    R2 5255  14.920  14.002   7.708  0.2539  0.2038 -0.1942
  582CHOL    R3 5256  14.906  13.740   7.635  0.1585  0.1970 -0.1557
  582CHOL    R4 5257  14.817  13.888   7.398  0.3197  0.2047 -0.2172
  582CHOL    R5 5258  14.709  13.727   7.498  0.2026  0.2699 -0.2305
  582CHOL    C1 5259  14.743  13.576   7.150  0.2684  0.1990 -0.1946
  582CHOL    C2 5260  14.841  13.316   6.893  0.3239 -0.2475  0.1216
  583CHOL   ROH 5261  12.728   3.988   5.361  0.0984  0.1010  0.1892
  583CHOL    R1 5262  12.509   4.041   5.532  0.0028 -0.0565  0.1157
  583CHOL    R2 5263  12.354   3.840   5.641  0.1667 -0.1715  0.1320
  583CHOL    R3 5264  12.416   3.963   5.875 -0.0146 -0.0416  0.1154
  583CHOL    R4 5265  12.140   3.872   5.910  0.0368 -0.2491  0.0402
  583CHOL    R5 5266  12.215   4.075   5.939 -0.1310 -0.1763  0.0008
  583CHOL    C1 5267  12.074   4.006   6.287 -0.2090 -0.1724 -0.0288
  583CHOL    C2 5268  12.023   4.382   6.514  0.1000  0.1194 -0.1023
  584XCA    COO 5269   7.096   5.529   4.483 -0.1808  0.0420  0.0793
  584XCA     C1 5270   7.019   5.430   4.931 -0.1484 -0.0052 -0.4205
  584XCA     C2 5271   6.840   5.384   5.313  0.0723 -0.3814  0.1954
  584XCA     C3 5272   6.747   5.746   5.663  0.1550 -0.0100  0.0724
  584XCA     C4 5273   6.888   5.999   6.008  0.1150 -0.1147  0.0609
  584XCA     C5 5274   7.125   6.009   6.348 -0.5477  0.1700 -0.2520
  584XCA     C6 5275   7.384   6.189   6.603  0.1933 -0.1207 -0.0359
  585PNCE   AM1 5276   8.533  12.325   8.499 -0.3743  0.0253 -0.1570
  585PNCE   AM2 5277   8.384  12.581   8.636  0.2164  0.2607  0.0161
  585PNCE   T1A 5278   8.622  12.389   8.034  0.1823 -0.2866 -0.3830
  585PNCE   C2A 5279   8.376  12.480   7.599 -0.1628 -0.1494  0.1480
  585PNCE   C3A 5280   7.931  12.447   7.392 -0.0245  0.0470 -0.0773
  585PNCE   C1B 5281   8.133  12.488   8.234 -0.2080 -0.0316  0.2173
  585PNCE   C2B 5282   8.006  12.204   7.849  0.1297 -0.1171 -0.1497
  585PNCE   C3B 5283   8.115  12.004   7.428 -0.1336 -0.3623  0.1931
  585PNCE   D4B 5284   8.051  11.924   6.954  0.1812 -0.5433 -0.0896
  585PNCE   C5B 5285   8.194  11.722   6.638  0.3789  0.3319  0.1605
  585PNCE   C6B 5286   8.070  11.376   6.634 -0.2863 -0.0085 -0.0873
  586PNCE   AM1 5287   2.169   5.037   8.875 -0.1667  0.0721  0.1654
  586PNCE   AM2 5288   2.016   5.336   8.890  0.1186  0.1858 -0.2231
  586PNCE   T1A 5289   2.628   5.194   8.644  0.1452 -0.0129  0.3100
  586PNCE   C2A 5290   2.689   5.261   8.224 -0.0501 -0.1836  0.1712
  586PNCE   C3A 5291   2.465   5.468   7.932  0.3444 -0.2317 -0.1649
  586PNCE   C1B 5292   1.832   5.239   8.440 -0.4135  0.2680  0.2050
  586PNCE   C2B 5293   1.938   5.134   7.979 -0.1797  0.1528  0.0291
  586PNCE   C3B 5294   1.717   5.288   7.577 -0.1595 -0.2041 -0.1445
  586PNCE   D4B 5295   1.351   5.088   7.337  0.1976 -0.0144  0.1079
  586PNCE   C5B 5296   1.483   4.727   7.076  0.0912 -0.0803  0.1180
  586PNCE   C6B 5297   2.007   4.547   7.178  0.1546 -0.1711  0.1574
  587CHOL   ROH 5298   9.955   1.286   7.501  0.0826 -0.0961  0.1614
  587CHOL    R1 5299  10.025   1.309   7.228 -0.1770  0.1183  0.1086
  587CHOL    R2 5300  10.178   1.119   7.097  0.1345  0.4662 -0.0511
  587CHOL    R3 5301   9.969   1.117   6.924 -0.0089  0.0592  0.1139
  587CHOL    R4 5302  10.200   1.035   6.763  0.0295  0.4995 -0.0668
  587CHOL    R5 5303  10.062   1.197   6.718 -0.3252  0.2371  0.0350
  587CHOL    C1 5304  10.016   0.984   6.405 -0.1663  0.1368  0.0790
  587CHOL    C2 5305  10.162   1.068   6.038  0.2825  0.2641  0.2292
  588PNCE   AM1 5306   4.387  15.043   8.404  0.0108  0.0325 -0.0395
  588PNCE   AM2 5307   4.735  14.924   8.477 -0.1336  0.0135  0.2246
  588PNCE   T1A 5308   4.424  14.729   8.096  0.4134  0.0118 -0.1520
  588PNCE   C2A 5309   4.559  14.511   7.727  0.0593 -0.0912 -0.0281
  588PNCE   C3A 5310   4.893  14.537   7.398  0.0043  0.1948  0.3701
  588PNCE   C1B 5311   5.003  14.659   8.269  0.0332  0.1940  0.1040
  588PNCE   C2B 5312   5.083  14.582   7.866 -0.1109  0.0092  0.2410
  588PNCE   C3B 5313   5.228  14.222   7.544 -0.0163 -0.0072 -0.0209
  588PNCE   D4B 5314   5.111  14.027   7.106  0.1208  0.2822 -0.0695
  588PNCE   C5B 5315   4.790  13.854   6.971  0.2239  0.1349  0.0729
  588PNCE   C6B 5316   4.337  13.867   6.841 -0.0819 -0.1578 -0.2149
  589CHOL   ROH 5317   7.287  13.464   5.376 -0.0907  0.0591 -0.0823
  589CHOL    R1 5318   7.400  13.415   5.631 -0.0832 -0.0016 -0.0971
  589CHOL    R2 5319   7.661  13.332   5.665 -0.0274  0.1605 -0.1165
  589CHOL    R3 5320   7.675  13.548   5.829 -0.1952  0.0828  0.0027
  589CHOL    R4 5321   7.846  13.348   5.957 -0.0425  0.1445 -0.1061
  589CHOL    R5 5322   7.681  13.456   6.049 -0.1265 -0.0325 -0.0476
  589CHOL    C1 5323   7.966  13.560   6.280 -0.2087  0.0624  0.0118
  589CHOL    C2 5324   8.122  13.374   6.641  0.2309  0.0325  0.1117
  590XCA    COO 5325  10.611  12.173   7.286  0.1850  0.2099  0.0872
  590XCA     C1 5326  10.605  12.114   6.959 -0.4325  0.2415  0.1109
  590XCA     C2 5327  10.432  12.027   6.592 -0.2798  0.1208 -0.2550
  590XCA     C3 5328  10.667  12.021   6.226  0.0539  0.1390  0.0755
  590XCA     C4 5329  10.773  11.582   6.051 -0.0879 -0.0854  0.0015
  590XCA     C5 5330  10.943  11.322   6.246  0.1143  0.2263 -0.0495
  590XCA     C6 5331  11.218  11.125   6.418  0.1202  0.1923  0.0099
  591CHOL   ROH 5332   2.568  13.509   7.112  0.2297  0.1850  0.0530
  591CHOL    R1 5333   2.588  13.431   6.841  0.0971  0.1815  0.0431
  591CHOL    R2 5334   2.750  13.564   6.660  0.1250  0.0870 -0.0012
  591CHOL    R3 5335   2.852  13.316   6.618 -0.0429  0.0234 -0.0441
  591CHOL    R4 5336   2.939  13.473   6.386  0.1286  0.0318  0.0198
  591CHOL    R5 5337   2.832  13.283   6.382 -0.0090  0.1069 -0.0605
  591CHOL    C1 5338   3.145  13.186   6.187 -0.0270 -0.0600 -0.0082
  591CHOL    C2 5339   3.190  12.831   6.028 -0.1379 -0.0049 -0.4146
  592CHOL   ROH 5340  10.411   4.493   4.865  0.0113 -0.0219 -0.1400
  592CHOL    R1 5341  10.252   4.716   4.937 -0.0036 -0.0480 -0.0933
  592CHOL    R2 5342   9.977   4.717   4.911 -0.0107 -0.0930 -0.0126
  592CHOL    R3 5343   9.985   4.784   5.174  0.0548 -0.0910 -0.0144
  592CHOL    R4 5344   9.699   4.767   5.110  0.0378 -0.2048  0.0849
  592CHOL    R5 5345   9.802   4.935   5.202  0.0033 -0.1636  0.0498
  592CHOL    C1 5346   9.544   4.858   5.473  0.1277 -0.2680  0.1400
  592CHOL    C2 5347   9.253   4.717   5.477 -0.0445 -0.1669  0.2215
  593CHOL   ROH 5348   1.789  12.953   5.177  0.3650 -0.0922  0.0684
  593CHOL    R1 5349   1.768  12.981   5.458  0.2365 -0.0175  0.0538
  593CHOL    R2 5350   1.870  12.795   5.634  0.0955 -0.0107  0.1553
  593CHOL    R3 5351   1.999  13.011   5.739  0.1117 -0.0228  0.1554
  593CHOL    R4 5352   1.985  12.817   5.960  0.0250  0.0199  0.1766
  593CHOL    R5 5353   1.917  13.025   5.964  0.0663  0.0283  0.1311
  593CHOL    C1 5354   2.172  13.033   6.247 -0.0008  0.0264  0.1892
  593CHOL    C2 5355   2.270  13.348   6.498 -0.0579  0.1742  0.1983
  594CHOL   ROH 5356   9.253   0.654   4.479  0.0611 -0.0199  0.0602
  594CHOL    R1 5357   9.023   0.559   4.613  0.0239  0.0516  0.0470
  594CHOL    R2 5358   9.020   0.322   4.756 -0.0958 -0.0162 -0.0652
  594CHOL    R3 5359   8.931   0.482   4.957  0.0271 -0.0578  0.0233
  594CHOL    R4 5360   8.820   0.217   5.017 -0.0681 -0.0339 -0.0511
  594CHOL    R5 5361   8.709   0.404   5.001  0.0063  0.0197  0.0539
  594CHOL    C1 5362   8.620   0.305   5.359  0.0634 -0.0833  0.0402
  594CHOL    C2 5363   8.388   0.034   5.243 -0.1044  0.6082 -0.0432
  595CHOL   ROH 5364   9.410   2.334   4.741 -0.1593  0.1410 -0.1233
  595CHOL    R1 5365   9.354   2.297   5.016  0.0380 -0.0179 -0.1021
  595CHOL    R2 5366   9.167   2.450   5.152  0.2018 -0.0331  0.1421
  595CHOL    R3 5367   9.063   2.208   5.217  0.1561 -0.0354  0.0638
  595CHOL    R4 5368   8.964   2.389   5.424 -0.0024 -0.0351 -0.0079
  595CHOL    R5 5369   9.071   2.202   5.456 -0.0219 -0.0349  0.0718
  595CHOL    C1 5370   8.748   2.126   5.644 -0.1644 -0.0385 -0.1687
  595CHOL    C2 5371   8.389   2.215   5.806 -0.1690 -0.0549 -0.2293
  596CHOL   ROH 5372   4.836  11.270   9.186 -0.0638 -0.0393 -0.0690
  596CHOL    R1 5373   4.958  11.271   8.931 -0.0145  0.0894 -0.0458
  596CHOL    R2 5374   4.836  11.166   8.707  0.0574  0.1369 -0.1102
  596CHOL    R3 5375   4.887  11.413   8.604  0.0077  0.1906 -0.0066
  596CHOL    R4 5376   4.861  11.238   8.370  0.2996  0.2373 -0.0727
  596CHOL    R5 5377   5.028  11.370   8.415  0.1884  0.3182  0.0995
  596CHOL    C1 5378   4.923  11.511   8.077  0.3940  0.3463  0.0464
  596CHOL    C2 5379   5.001  11.637   7.662  0.3363 -0.0583  0.1605
  597PNCE   AM1 5380   2.102   0.962   8.450  0.1656  0.0774 -0.1280
  597PNCE   AM2 5381   2.043   1.222   8.557  0.1488 -0.2084  0.0399
  597PNCE   T1A 5382   2.439   1.191   8.164 -0.0917 -0.0399 -0.4701
  597PNCE   C2A 5383   2.649   1.207   7.855 -0.1324  0.0583  0.0016
  597PNCE   C3A 5384   2.878   1.310   7.448  0.2027  0.0213  0.3056
  597PNCE   C1B 5385   1.972   1.297   8.114 -0.2126  0.0548 -0.1044
  597PNCE   C2B 5386   2.161   1.318   7.805  0.0595  0.0217  0.0917
  597PNCE   C3B 5387   2.352   1.331   7.401 -0.2359  0.2350 -0.2880
  597PNCE   D4B 5388   2.418   1.307   6.989  0.2431 -0.1059  0.0847
  597PNCE   C5B 5389   2.238   1.539   6.663  0.1051  0.0032 -0.0674
  597PNCE   C6B 5390   2.480   1.820   6.275 -0.0448 -0.0792 -0.0113
  598XCA    COO 5391   0.980   7.216   5.442  0.2914 -0.0307 -0.3473
  598XCA     C1 5392   0.861   7.195   5.856 -0.0496  0.0611  0.2135
  598XCA     C2 5393   0.738   7.186   6.310 -0.2104  0.0701 -0.0631
  598XCA     C3 5394   0.613   7.249   6.784  0.1298  0.1937 -0.1286
  598XCA     C4 5395   0.372   7.646   6.880 -0.1443 -0.0136 -0.4268
  598XCA     C5 5396   0.100   8.017   7.070 -0.1418  0.1147 -0.2451
  598XCA     C6 5397  -0.003   8.344   7.409  0.0845 -0.1503  0.1351
  599CHOL   ROH 5398   0.771   3.159   5.027  0.0505  0.2688 -0.1210
  599CHOL    R1 5399   0.969   2.999   5.151  0.0677  0.2068 -0.2282
  599CHOL    R2 5400   1.193   3.107   5.270  0.0445  0.1532 -0.1381
  599CHOL    R3 5401   1.109   2.963   5.485  0.0561 -0.0187 -0.2460
  599CHOL    R4 5402   1.401   2.972   5.512  0.0496  0.0643 -0.1909
  599CHOL    R5 5403   1.276   2.793   5.512  0.1099  0.0193 -0.3304
  599CHOL    C1 5404   1.442   2.759   5.854  0.0634 -0.1488 -0.3231
  599CHOL    C2 5405   1.708   2.770   6.117  0.2175  0.2873 -0.2714
  600PNCE   AM1 5406   0.975   2.803   8.862  0.2085  0.1546  0.0123
  600PNCE   AM2 5407   0.967   2.520   8.821  0.0718  0.0995 -0.0180
  600PNCE   T1A 5408   0.939   2.734   8.381 -0.2514  0.3024  0.0970
  600PNCE   C2A 5409   1.117   2.822   7.934 -0.1224  0.1472 -0.1254
  600PNCE   C3A 5410   0.915   3.225   7.810 -0.1030 -0.0095  0.0427
  600PNCE   C1B 5411   1.224   2.334   8.413  0.0829  0.0544 -0.0442
  600PNCE   C2B 5412   1.094   2.306   7.993 -0.0139  0.0991  0.3654
  600PNCE   C3B 5413   1.037   2.372   7.582  0.0089  0.0166 -0.2443
  600PNCE   D4B 5414   0.670   2.166   7.300  0.2378 -0.1216 -0.4022
  600PNCE   C5B 5415   0.449   2.140   6.941 -0.0782  0.1147  0.1358
  600PNCE   C6B 5416   0.258   2.200   6.571  0.0249  0.0166  0.0994
  601XCA    COO 5417   5.879  13.223   8.342 -0.0338  0.0825 -0.1039
  601XCA     C1 5418   5.801  13.381   7.987 -0.0209 -0.2561  0.0630
  601XCA     C2 5419   5.409  13.415   7.745  0.1998  0.0129  0.0165
  601XCA     C3 5420   5.126  13.564   7.260  0.0419 -0.2769 -0.1237
  601XCA     C4 5421   5.215  13.590   6.722 -0.1089 -0.0368 -0.0907
  601XCA     C5 5422   5.108  13.624   6.285  0.0786 -0.1976 -0.1291
  601XCA     C6 5423   5.021  13.772   5.855 -0.2493  0.2318 -0.2787
  602CHOL   ROH 5424   7.902   4.259   4.906  0.1498 -0.1339 -0.3094
  602CHOL    R1 5425   7.943   4.137   5.158 -0.0704 -0.0858 -0.2490
  602CHOL    R2 5426   7.998   3.868   5.185  0.1096 -0.0369 -0.1686
  602CHOL    R3 5427   8.213   3.959   5.324 -0.1337  0.1386  0.1066
  602CHOL    R4 5428   8.180   3.681   5.413  0.0206  0.0764 -0.0008
  602CHOL    R5 5429   8.192   3.858   5.540 -0.2956  0.0647  0.0615
  602CHOL    C1 5430   8.488   3.658   5.675 -0.2597  0.3071  0.3553
  602CHOL    C2 5431   8.723   3.440   6.089  0.1325 -0.0788  0.1963
  603PNCE   AM1 5432   8.794  11.978   8.703  0.1379  0.1207 -0.1036
  603PNCE   AM2 5433   9.116  11.711   8.575 -0.0450  0.1473 -0.1342
  603PNCE   T1A 5434   8.950  12.013   8.191 -0.3126 -0.3037  0.2901
  603PNCE   C2A 5435   9.066  12.176   7.797  0.0628 -0.1632  0.1861
  603PNCE   C3A 5436   9.144  12.175   7.342 -0.2873 -0.1569 -0.1117
  603PNCE   C1B 5437   9.109  11.436   8.166  0.1932  0.1088  0.0015
  603PNCE   C2B 5438   8.686  11.386   7.966  0.0486  0.0826 -0.4150
  603PNCE   C3B 5439   8.274  11.497   7.837 -0.0015 -0.1581 -0.0333
  603PNCE   D4B 5440   7.879  11.620   7.573  0.1435  0.1328  0.1551
  603PNCE   C5B 5441   7.708  11.608   7.190 -0.1698 -0.1388  0.3001
  603PNCE   C6B 5442   7.652  11.630   6.762  0.0330 -0.3488 -0.0977
  604XCA    COO 5443  14.040  12.545   8.749 -0.0840 -0.2349  0.1079
  604XCA     C1 5444  13.688  12.287   8.379 -0.1363 -0.0332 -0.0622
  604XCA     C2 5445  13.767  11.863   8.313 -0.3131 -0.0620 -0.2383
  604XCA     C3 5446  13.597  11.582   8.133  0.1272 -0.3289  0.2588
  604XCA     C4 5447  13.496  11.312   7.751  0.0910  0.1400 -0.0918
  604XCA     C5 5448  13.523  10.972   7.528  0.1257 -0.2500  0.0908
  604XCA     C6 5449  13.587  10.705   7.137  0.1551 -0.0267 -0.1136
  605PNCE   AM1 5450   9.438  13.018   8.001  0.0171 -0.1485  0.2841
  605PNCE   AM2 5451   9.163  13.045   8.235 -0.0563 -0.1101 -0.0951
  605PNCE   T1A 5452   9.389  12.971   7.524  0.0514  0.0454  0.0606
  605PNCE   C2A 5453   9.360  12.673   7.268 -0.4349 -0.0443 -0.0707
  605PNCE   C3A 5454   9.187  12.503   6.943  0.1232 -0.0644  0.0919
  605PNCE   C1B 5455   8.974  12.808   7.847  0.0736  0.0703 -0.0698
  605PNCE   C2B 5456   8.846  12.660   7.426 -0.2084 -0.0356 -0.0975
  605PNCE   C3B 5457   8.791  12.293   7.050  0.2813  0.3900 -0.3389
  605PNCE   D4B 5458   9.120  11.986   6.875  0.1132  0.2965  0.2463
  605PNCE   C5B 5459   9.093  11.544   6.769  0.2073 -0.1554 -0.1261
  605PNCE   C6B 5460   9.029  11.199   6.402  0.0785  0.2585 -0.0482
  606CHOL   ROH 5461   2.948  10.819   6.975  0.2270  0.0469  0.2275
  606CHOL    R1 5462   3.159  10.637   6.925  0.0781 -0.0709  0.0080
  606CHOL    R2 5463   3.356  10.584   7.112  0.3210 -0.0699 -0.2442
  606CHOL    R3 5464   3.280  10.326   7.069  0.1444 -0.0586 -0.0189
  606CHOL    R4 5465   3.539  10.306   7.206  0.4049 -0.1004 -0.4890
  606CHOL    R5 5466   3.484  10.212   7.017  0.0151 -0.1475 -0.3644
  606CHOL    C1 5467   3.575   9.902   7.221  0.2879 -0.1074 -0.4201
  606CHOL    C2 5468   3.826   9.609   7.303  0.1403  0.1402 -0.1466
  607XCA    COO 5469   6.787   7.661   9.219 -0.1605  0.3163  0.1519
  607XCA     C1 5470   6.713   7.601   8.767 -0.1644 -0.0141  0.0973
  607XCA     C2 5471   6.889   7.675   8.387  0.1950 -0.0065 -0.2144
  607XCA     C3 5472   7.056   7.746   7.991 -0.0608  0.2942 -0.0372
  607XCA     C4 5473   7.220   7.715   7.634  0.2387 -0.3085 -0.2858
  607XCA     C5 5474   7.499   7.618   7.300  0.0761 -0.1217  0.2263
  607XCA     C6 5475   7.741   7.455   6.879 -0.2520 -0.2336 -0.0548
  608XCA    COO 5476  12.287  15.223   8.561  0.2527 -0.1564  0.0382
  608XCA     C1 5477  12.396  15.093   8.107  0.1835 -0.2736 -0.2256
  608XCA     C2 5478  12.395  15.421   7.699 -0.2374 -0.0167  0.2357
  608XCA     C3 5479  12.297  15.828   7.509  0.2686 -0.1125  0.0215
  608XCA     C4 5480  12.214  16.179   7.253  0.1081 -0.2554 -0.1032
  608XCA     C5 5481  12.272  16.262   6.840  0.0779  0.0733 -0.0806
  608XCA     C6 5482  11.998  16.238   6.462  0.1537 -0.1024  0.4263
  609XCA    COO 5483   8.364   7.188   9.521  0.2294 -0.2240 -0.2521
  609XCA     C1 5484   8.677   6.904   9.239  0.1329 -0.0434  0.2374
  609XCA     C2 5485   8.882   6.601   9.109  0.0132  0.2612 -0.3017
  609XCA     C3 5486   9.127   6.364   8.715 -0.1408 -0.2004  0.1033
  609XCA     C4 5487   9.032   6.280   8.321 -0.0796  0.4559  0.0096
  609XCA     C5 5488   9.268   6.300   7.921 -0.3741 -0.1415 -0.0025
  609XCA     C6 5489   9.364   6.522   7.527 -0.0517  0.0760  0.2983
  610CHOL   ROH 5490   2.939  13.260   8.659  0.0128 -0.0399  0.2228
  610CHOL    R1 5491   3.062  13.286   8.405  0.1586 -0.0865  0.2866
  610CHOL    R2 5492   2.996  13.488   8.228  0.0175 -0.3074  0.0765
  610CHOL    R3 5493   3.263  13.535   8.233 -0.0423  0.0410  0.2349
  610CHOL    R4 5494   3.170  13.660   7.985  0.0020 -0.4362 -0.0270
  610CHOL    R5 5495   3.331  13.515   8.004  0.1747 -0.2056  0.3190
  610CHOL    C1 5496   3.522  13.806   7.847 -0.0633 -0.1842  0.0616
  610CHOL    C2 5497   3.336  13.988   7.635  0.0357 -0.3054 -0.1706
  611CHOL   ROH 5498  10.304   4.059   5.021  0.0649  0.0269  0.0937
  611CHOL    R1 5499  10.178   4.295   5.112  0.0131 -0.0134  0.1263
  611CHOL    R2 5500   9.969   4.292   5.292  0.0573 -0.0809  0.1758
  611CHOL    R3 5501  10.128   4.461   5.432  0.0375 -0.0321  0.1402
  611CHOL    R4 5502   9.893   4.423   5.603 -0.0389  0.1141  0.0723
  611CHOL    R5 5503   9.976   4.613   5.537  0.0257  0.0606 -0.0067
  611CHOL    C1 5504   9.998   4.658   5.916 -0.1136  0.2733 -0.0215
  611CHOL    C2 5505  10.148   4.731   6.251 -0.0343 -0.0903  0.1094
  612CHOL   ROH 5506  10.980   3.783   7.789  0.1557 -0.0750  0.0422
  612CHOL    R1 5507  11.108   3.806   7.538  0.0318 -0.0899 -0.0233
  612CHOL    R2 5508  10.969   3.853   7.303 -0.0645  0.1143  0.0733
  612CHOL    R3 5509  11.143   4.061   7.281  0.0991 -0.0218  0.0525
  612CHOL    R4 5510  11.057   4.007   7.007 -0.0090  0.0675  0.0652
  612CHOL    R5 5511  11.262   4.019   7.079  0.0192 -0.1032  0.0206
  612CHOL    C1 5512  11.271   4.293   6.813  0.1770 -0.0875  0.0410
  612CHOL    C2 5513  11.356   4.172   6.407 -0.0761 -0.1132  0.2734
  613CHOL   ROH 5514  10.699   1.807   5.463  0.1733 -0.3695 -0.0664
  613CHOL    R1 5515  10.647   1.604   5.653  0.0617 -0.2655  0.0175
  613CHOL    R2 5516  10.795   1.576   5.885  0.0479 -0.2525  0.0327
  613CHOL    R3 5517  10.550   1.588   6.003  0.0528 -0.0673  0.0241
  613CHOL    R4 5518  10.720   1.452   6.199 -0.1004 -0.3469 -0.0396
  613CHOL    R5 5519  10.530   1.380   6.121 -0.1684 -0.1099 -0.0893
  613CHOL    C1 5520  10.447   1.391   6.493 -0.1822 -0.2280 -0.0897
  613CHOL    C2 5521  10.270   1.596   6.848  0.0167  0.1195 -0.1153
  614CHOL   ROH 5522  11.319  15.172   6.434 -0.1986 -0.2556  0.0552
  614CHOL    R1 5523  11.090  15.127   6.274 -0.1591 -0.1309 -0.0362
  614CHOL    R2 5524  11.007  15.304   6.079  0.0579 -0.1215 -0.1140
  614CHOL    R3 5525  11.020  15.084   5.919 -0.0333 -0.1689 -0.0592
  614CHOL    R4 5526  10.839  15.267   5.779  0.2624  0.0031 -0.2482
  614CHOL    R5 5527  10.797  15.060   5.833  0.0033  0.0473 -0.2368
  614CHOL    C1 5528  10.752  15.040   5.455  0.2958  0.0310 -0.2748
  614CHOL    C2 5529  10.450  15.125   5.378 -0.1791  0.0520 -0.2284
  615PNCE   AM1 5530  12.235   3.641   8.295 -0.1512  0.0583  0.1899
  615PNCE   AM2 5531  11.955   3.851   8.477  0.1553  0.0425  0.0355
  615PNCE   T1A 5532  12.273   3.336   8.020 -0.0609 -0.0573  0.1814
  615PNCE   C2A 5533  12.606   3.096   7.732 -0.0177  0.0116 -0.2810
  615PNCE   C3A 5534  12.996   2.901   7.538 -0.1030  0.3843 -0.1717
  615PNCE   C1B 5535  12.134   4.089   8.121  0.1575 -0.2421 -0.0150
  615PNCE   C2B 5536  12.096   4.155   7.721 -0.1295 -0.2643 -0.3704
  615PNCE   C3B 5537  12.181   4.282   7.299 -0.3095  0.2758  0.0559
  615PNCE   D4B 5538  11.974   4.327   6.993 -0.2348 -0.0914 -0.2112
  615PNCE   C5B 5539  11.613   3.952   6.818 -0.1354  0.0134 -0.2771
  615PNCE   C6B 5540  11.260   3.762   6.681 -0.1195 -0.1707  0.1586
  616CHOL   ROH 5541   9.805  13.612   7.168 -0.0199 -0.0669  0.0336
  616CHOL    R1 5542   9.706  13.423   6.982 -0.0128 -0.0699  0.0329
  616CHOL    R2 5543   9.583  13.188   7.061 -0.0737 -0.0380  0.0323
  616CHOL    R3 5544   9.382  13.277   6.901 -0.0213 -0.0199 -0.0236
  616CHOL    R4 5545   9.349  12.986   6.906  0.0062 -0.0252 -0.1069
  616CHOL    R5 5546   9.365  13.112   6.729  0.0620  0.0196 -0.0707
  616CHOL    C1 5547   9.024  12.952   6.666  0.1020 -0.0007 -0.2405
  616CHOL    C2 5548   8.680  12.715   6.673 -0.1785 -0.1594 -0.2401
  617CHOL   ROH 5549   0.131  13.879   4.659  0.1589  0.1449 -0.0413
  617CHOL    R1 5550  -0.034  13.896   4.888  0.0341  0.1829 -0.1331
  617CHOL    R2 5551   0.044  13.801   5.136 -0.2119 -0.0367 -0.1357
  617CHOL    R3 5552  -0.017  14.053   5.216 -0.0056 -0.0172 -0.0333
  617CHOL    R4 5553  -0.098  13.882   5.440 -0.1987 -0.0494 -0.1257
  617CHOL    R5 5554  -0.222  14.029   5.338 -0.0514  0.1076 -0.0838
  617CHOL    C1 5555  -0.237  14.166   5.693  0.0028 -0.0386 -0.0239
  617CHOL    C2 5556  -0.283  14.284   6.010 -0.0751 -0.0322  0.0595
  618CHOL   ROH 5557  13.198   4.018   5.340  0.0568  0.1140 -0.0613
  618CHOL    R1 5558  13.213   3.935   5.611 -0.0209  0.1569 -0.0436
  618CHOL    R2 5559  13.445   3.834   5.722 -0.0865  0.0623  0.0061
  618CHOL    R3 5560  13.404   4.030   5.906 -0.0132  0.1173 -0.0356
  618CHOL    R4 5561  13.637   3.882   6.005  0.0037  0.1227 -0.0647
  618CHOL    R5 5562  13.455   3.927   6.116  0.0403  0.1701 -0.0215
  618CHOL    C1 5563  13.711   4.095   6.342  0.1251  0.2094 -0.1450
  618CHOL    C2 5564  13.624   4.055   6.670 -0.0335 -0.2686 -0.2224
  619CHOL   ROH 5565  13.781   1.716   8.929  0.0797  0.0790  0.1716
  619CHOL    R1 5566  13.793   1.792   8.656  0.1824 -0.1852  0.1000
  619CHOL    R2 5567  13.813   2.055   8.576 -0.3503 -0.2118 -0.1534
  619CHOL    R3 5568  14.030   1.964   8.440  0.0171  0.1384  0.1681
  619CHOL    R4 5569  13.947   2.204   8.294 -0.4776 -0.2462 -0.2332
  619CHOL    R5 5570  13.978   2.005   8.210  0.1030 -0.3039  0.0564
  619CHOL    C1 5571  14.228   2.205   8.002 -0.2068  0.0625  0.0221
  619CHOL    C2 5572  14.027   2.294   7.698 -0.2086  0.0321  0.3491
  620PNCE   AM1 5573   0.462  15.872   8.420 -0.2020 -0.2755 -0.2237
  620PNCE   AM2 5574   0.217  15.819   8.416 -0.2065  0.0768 -0.1504
  620PNCE   T1A 5575   0.508  16.110   8.004  0.2170  0.1460 -0.2156
  620PNCE   C2A 5576   0.608  16.206   7.569 -0.1170  0.3934 -0.2394
  620PNCE   C3A 5577   0.565  16.215   7.062  0.3335 -0.1976  0.1237
  620PNCE   C1B 5578  -0.005  16.170   8.211  0.1503 -0.1146 -0.0739
  620PNCE   C2B 5579   0.010  16.339   7.833  0.1579 -0.3882  0.2845
  620PNCE   C3B 5580   0.188  16.399   7.431  0.2363  0.0212  0.0236
  620PNCE   D4B 5581  -0.081  16.465   7.092 -0.1768  0.0848  0.0349
  620PNCE   C5B 5582  -0.179  16.855   6.908 -0.1889 -0.1451 -0.2799
  620PNCE   C6B 5583  -0.014  17.264   7.118  0.0273  0.0911  0.3067
  621XCA    COO 5584  14.847  11.166   8.884 -0.1479 -0.2108 -0.0418
  621XCA     C1 5585  15.182  10.963   8.553 -0.0688 -0.0145  0.0087
  621XCA     C2 5586  15.253  10.865   8.140  0.0799 -0.1255 -0.1151
  621XCA     C3 5587  15.244  10.639   7.749 -0.2380 -0.0514 -0.2710
  621XCA     C4 5588  15.253  10.455   7.378 -0.0279 -0.1705 -0.1966
  621XCA     C5 5589  15.003  10.228   7.241 -0.0627  0.1504 -0.1336
  621XCA     C6 5590  14.578  10.210   7.238  0.0801 -0.0585  0.2301
  622PNCE   AM1 5591   5.521   3.681   8.586 -0.0862  0.1045  0.1329
  622PNCE   AM2 5592   5.803   3.807   8.405  0.0087 -0.1037 -0.4167
  622PNCE   T1A 5593   5.415   4.113   8.468 -0.3161 -0.1093 -0.4120
  622PNCE   C2A 5594   5.237   4.494   8.640  0.3823  0.3218 -0.2633
  622PNCE   C3A 5595   5.150   4.972   8.649  0.4751  0.1101  0.0570
  622PNCE   C1B 5596   5.672   3.951   8.085 -0.1053  0.2160  0.0905
  622PNCE   C2B 5597   5.455   4.080   7.737  0.1672 -0.1082  0.0390
  622PNCE   C3B 5598   5.261   4.207   7.937 -0.0700  0.2136  0.0722
  622PNCE   D4B 5599   4.792   4.229   7.856  0.0785 -0.0515 -0.2697
  622PNCE   C5B 5600   4.886   4.600   7.546 -0.0717 -0.2074 -0.0405
  622PNCE   C6B 5601   4.961   5.030   7.633 -0.3379 -0.2027 -0.1325
  623CHOL   ROH 5602   7.080   9.306   7.408  0.0013  0.1772 -0.0369
  623CHOL    R1 5603   6.820   9.397   7.475  0.0051  0.1747 -0.0171
  623CHOL    R2 5604   6.677   9.570   7.314 -0.0729  0.0510 -0.0839
  623CHOL    R3 5605   6.487   9.376   7.331 -0.0338  0.0269  0.0927
  623CHOL    R4 5606   6.356   9.596   7.188 -0.0956 -0.1072 -0.0602
  623CHOL    R5 5607   6.283   9.496   7.367 -0.0509  0.0167  0.0284
  623CHOL    C1 5608   5.991   9.430   7.131 -0.0722 -0.2221  0.1192
  623CHOL    C2 5609   5.779   9.124   7.033  0.2425 -0.0469  0.1562
  624XCA    COO 5610  10.489   8.003   8.440 -0.1122  0.1751 -0.0889
  624XCA     C1 5611  10.343   7.993   7.966  0.1397 -0.1421  0.3659
  624XCA     C2 5612  10.271   7.770   7.559 -0.1788 -0.1643 -0.0675
  624XCA     C3 5613  10.370   7.648   7.064  0.0552 -0.4424 -0.2586
  624XCA     C4 5614  10.157   7.423   6.811 -0.0908 -0.1191 -0.1941
  624XCA     C5 5615   9.745   7.540   6.656  0.0748  0.1249 -0.1397
  624XCA     C6 5616   9.721   7.850   6.214 -0.0925 -0.0559  0.0528
  625XCA    COO 5617   1.960   5.111   4.997 -0.3019 -0.3616 -0.1777
  625XCA     C1 5618   1.802   4.960   5.375  0.1734 -0.0200 -0.1265
  625XCA     C2 5619   2.010   4.743   5.708  0.1674  0.1923  0.0844
  625XCA     C3 5620   2.126   4.812   6.088  0.2611  0.0507  0.1231
  625XCA     C4 5621   2.155   4.907   6.559 -0.0126  0.1366  0.2599
  625XCA     C5 5622   2.321   4.917   6.946 -0.5343  0.0082 -0.1753
  625XCA     C6 5623   2.617   4.682   6.936  0.0862  0.0945 -0.0337
  626CHOL   ROH 5624   2.119  11.256   5.036  0.0081  0.0461  0.1422
  626CHOL    R1 5625   1.920  11.290   5.234  0.0434  0.1121  0.1657
  626CHOL    R2 5626   1.863  11.096   5.422 -0.0634  0.0939  0.1102
  626CHOL    R3 5627   1.908  11.298   5.598  0.0724  0.0136  0.1701
  626CHOL    R4 5628   1.751  11.101   5.749 -0.2500  0.1614  0.0471
  626CHOL    R5 5629   1.705  11.313   5.724  0.0101  0.2258  0.0543
  626CHOL    C1 5630   1.728  11.294   6.104 -0.2311  0.1252  0.0666
  626CHOL    C2 5631   1.599  11.473   6.529  0.0285  0.2157 -0.0953
  627CHOL   ROH 5632  12.573   3.804   7.946  0.2593  0.2588 -0.0240
  627CHOL    R1 5633  12.455   3.688   7.717  0.1714  0.0515  0.1234
  627CHOL    R2 5634  12.419   3.828   7.481 -0.0816 -0.1067  0.0688
  627CHOL    R3 5635  12.556   3.619   7.374 -0.0261 -0.0816  0.0889
  627CHOL    R4 5636  12.445   3.762   7.143 -0.0516 -0.1152  0.0722
  627CHOL    R5 5637  12.422   3.550   7.188 -0.0046 -0.1220  0.0846
  627CHOL    C1 5638  12.589   3.528   6.845  0.0181 -0.0967  0.0931
  627CHOL    C2 5639  12.318   3.356   6.688  0.0871 -0.0872  0.3356
  628CHOL   ROH 5640   3.551  14.626   5.770 -0.1196 -0.0968  0.1451
  628CHOL    R1 5641   3.297  14.690   5.878 -0.0404 -0.0001  0.2772
  628CHOL    R2 5642   3.267  14.837   6.110  0.1332  0.1685  0.1943
  628CHOL    R3 5643   3.110  14.994   5.952  0.0346  0.0681  0.1916
  628CHOL    R4 5644   2.978  14.996   6.213 -0.0641 -0.1542  0.1513
  628CHOL    R5 5645   2.887  14.944   6.022  0.0549 -0.1812  0.0980
  628CHOL    C1 5646   2.663  15.235   6.125 -0.2716 -0.4363  0.1238
  628CHOL    C2 5647   2.367  15.419   6.165  0.2053 -0.0475 -0.0519
  629XCA    COO 5648  12.967   9.219   4.950 -0.0498  0.0293 -0.2989
  629XCA     C1 5649  12.855   9.275   5.384  0.2960  0.3068  0.2554
  629XCA     C2 5650  12.632   9.269   5.713  0.3609  0.3208  0.2855
  629XCA     C3 5651  12.457   9.589   6.021 -0.2214 -0.0061  0.0487
  629XCA     C4 5652  12.022   9.767   6.192  0.0273  0.3263  0.1234
  629XCA     C5 5653  11.616  10.009   6.434 -0.2124  0.0846 -0.0868
  629XCA     C6 5654  11.492   9.822   6.725  0.0968 -0.0307 -0.0923
  630PNCE   AM1 5655   7.277  13.352   8.042 -0.0093 -0.0542 -0.0341
  630PNCE   AM2 5656   7.300  12.996   8.065 -0.0225 -0.0694  0.0440
  630PNCE   T1A 5657   7.398  13.241   7.596  0.1932  0.0215  0.1139
  630PNCE   C2A 5658   7.372  13.206   7.242 -0.0043  0.0133  0.0311
  630PNCE   C3A 5659   7.374  13.127   6.856 -0.1787  0.0337  0.0602
  630PNCE   C1B 5660   7.033  12.661   7.836  0.0711  0.0072 -0.1424
  630PNCE   C2B 5661   7.035  12.339   7.627  0.4029 -0.0592 -0.1265
  630PNCE   C3B 5662   7.087  12.074   7.337 -0.1696  0.0922  0.4541
  630PNCE   D4B 5663   6.758  11.934   6.933  0.0605  0.1310  0.3108
  630PNCE   C5B 5664   6.395  12.022   6.964 -0.0519 -0.3241  0.0704
  630PNCE   C6B 5665   6.002  11.963   7.146  0.1698 -0.5185  0.0197
  631PNCE   AM1 5666   3.983   0.263   8.878  0.2928  0.2145 -0.0398
  631PNCE   AM2 5667   4.105   0.031   8.703 -0.0851  0.2751  0.1205
  631PNCE   T1A 5668   3.967   0.658   8.533 -0.0805 -0.0640 -0.1892
  631PNCE   C2A 5669   3.806   0.972   8.297  0.4363  0.0361 -0.0129
  631PNCE   C3A 5670   3.720   1.333   7.946  0.2218 -0.3744 -0.4541
  631PNCE   C1B 5671   4.155   0.174   8.354  0.1016 -0.0832 -0.1025
  631PNCE   C2B 5672   4.079   0.149   7.934 -0.0979 -0.0376 -0.0469
  631PNCE   C3B 5673   4.134   0.366   7.515 -0.0194 -0.0186  0.2026
  631PNCE   D4B 5674   4.234   0.788   7.436  0.2886 -0.0968 -0.0797
  631PNCE   C5B 5675   4.616   0.982   7.643  0.2860 -0.1778 -0.0896
  631PNCE   C6B 5676   4.734   1.208   8.036  0.1775 -0.1080  0.0135
  632CHOL   ROH 5677  14.167  10.030   5.036  0.1225  0.0793  0.1643
  632CHOL    R1 5678  14.112   9.973   5.308  0.1579  0.0894  0.1737
  632CHOL    R2 5679  14.100   9.715   5.407  0.0057  0.0859  0.1508
  632CHOL    R3 5680  14.284   9.808   5.584  0.1207 -0.0592  0.1086
  632CHOL    R4 5681  14.175   9.566   5.709 -0.0992  0.0713  0.1697
  632CHOL    R5 5682  14.187   9.765   5.798  0.1068  0.0777  0.1297
  632CHOL    C1 5683  14.392   9.566   6.051 -0.0523 -0.0736  0.1412
  632CHOL    C2 5684  14.526   9.433   6.423 -0.0972  0.1771  0.1679
  633CHOL   ROH 5685   7.090   3.086   7.621 -0.0256 -0.0604 -0.0561
  633CHOL    R1 5686   7.049   3.361   7.569 -0.2496 -0.0596  0.1101
  633CHOL    R2 5687   7.100   3.474   7.322  0.0385  0.1995  0.2859
  633CHOL    R3 5688   6.843   3.560   7.345 -0.1064 -0.1082 -0.0700
  633CHOL    R4 5689   6.954   3.714   7.121  0.1714  0.3238  0.3347
  633CHOL    R5 5690   6.855   3.795   7.298 -0.2534 -0.0209  0.2777
  633CHOL    C1 5691   6.627   3.934   7.025  0.1128  0.1074  0.0291
  633CHOL    C2 5692   6.385   4.247   7.061 -0.0195  0.0486 -0.0737
  634CHOL   ROH 5693   9.856  11.154   5.000 -0.0426  0.1219  0.0212
  634CHOL    R1 5694   9.961  11.323   5.200 -0.0669  0.1440  0.0160
  634CHOL    R2 5695   9.804  11.438   5.396 -0.0712  0.0590  0.0656
  634CHOL    R3 5696   9.983  11.322   5.564  0.0147  0.1125  0.0106
  634CHOL    R4 5697   9.940  11.589   5.675 -0.0495  0.0886  0.0384
  634CHOL    R5 5698  10.132  11.499   5.624 -0.0320  0.1602 -0.0178
  634CHOL    C1 5699  10.189  11.568   5.995  0.0440  0.1562 -0.0290
  634CHOL    C2 5700  10.305  11.565   6.434  0.0178 -0.2466  0.1290
  635PNCE   AM1 5701   4.335   6.558   5.475  0.1020  0.0549 -0.1422
  635PNCE   AM2 5702   4.413   6.832   5.532  0.0535  0.0182  0.0703
  635PNCE   T1A 5703   4.210   6.311   5.931  0.0418 -0.1175  0.0280
  635PNCE   C2A 5704   4.224   6.393   6.293  0.0614 -0.0356  0.0493
  635PNCE   C3A 5705   4.083   6.494   6.685  0.1162  0.0401 -0.0556
  635PNCE   C1B 5706   4.438   6.795   6.011 -0.2854 -0.1775  0.1933
  635PNCE   C2B 5707   4.400   6.837   6.455  0.0441 -0.2299  0.1009
  635PNCE   C3B 5708   4.378   6.938   6.992 -0.3927  0.2314 -0.1858
  635PNCE   D4B 5709   4.397   7.315   7.301  0.0978  0.0066  0.2815
  635PNCE   C5B 5710   4.699   7.598   7.387  0.3167 -0.0153  0.0352
  635PNCE   C6B 5711   4.982   7.901   7.396  0.2570 -0.0587  0.0545
  636XCA    COO 5712   1.817   7.321   5.903 -0.0095 -0.1273  0.1730
  636XCA     C1 5713   1.873   7.047   6.137 -0.1098 -0.0219 -0.1777
  636XCA     C2 5714   1.864   7.017   6.613 -0.0929 -0.0880 -0.2088
  636XCA     C3 5715   2.191   6.891   6.900  0.0452 -0.1341 -0.0142
  636XCA     C4 5716   2.596   6.828   7.220 -0.1627  0.1036  0.0432
  636XCA     C5 5717   2.815   6.561   7.523 -0.2326  0.0475  0.1163
  636XCA     C6 5718   2.778   6.760   7.955 -0.1231 -0.2093 -0.0629
  637PNCE   AM1 5719  10.325  11.076   4.266  0.0799 -0.0786 -0.1123
  637PNCE   AM2 5720  10.096  11.222   4.495 -0.3900  0.0653  0.2582
  637PNCE   T1A 5721  10.631  11.088   4.547 -0.0100  0.1100 -0.1997
  637PNCE   C2A 5722  10.812  11.187   5.000 -0.2093  0.0162  0.2762
  637PNCE   C3A 5723  10.995  11.458   5.123 -0.0628  0.0404  0.2985
  637PNCE   C1B 5724  10.319  11.055   4.924 -0.2759  0.1559 -0.1488
  637PNCE   C2B 5725  10.394  11.293   5.271 -0.2359 -0.3696  0.1360
  637PNCE   C3B 5726  10.597  11.434   5.607 -0.1786  0.1097  0.2483
  637PNCE   D4B 5727  10.779  11.242   5.709  0.1091 -0.3316  0.0119
  637PNCE   C5B 5728  10.789  10.860   5.938  0.0025 -0.0906 -0.0700
  637PNCE   C6B 5729  11.078  10.547   5.719  0.0805 -0.2194 -0.1334
  638CHOL   ROH 5730   2.444  13.140   8.338 -0.0765  0.1706 -0.2631
  638CHOL    R1 5731   2.676  12.983   8.294 -0.0479  0.2027 -0.2266
  638CHOL    R2 5732   2.676  12.707   8.322  0.0335  0.2213 -0.0406
  638CHOL    R3 5733   2.773  12.714   8.068 -0.0447  0.0761 -0.0763
  638CHOL    R4 5734   2.815  12.438   8.155  0.1401  0.1671  0.1313
  638CHOL    R5 5735   2.965  12.572   8.073  0.0395  0.1908 -0.0187
  638CHOL    C1 5736   2.987  12.289   7.819  0.1288 -0.0007  0.1979
  638CHOL    C2 5737   2.965  12.331   7.398 -0.1562 -0.0769 -0.0505
  639XCA    COO 5738  12.686   9.632   4.635 -0.0306 -0.0142 -0.2326
  639XCA     C1 5739  12.516   9.570   5.077  0.0682  0.1926  0.0233
  639XCA     C2 5740  12.168   9.553   5.375 -0.0801  0.3162 -0.0422
  639XCA     C3 5741  12.059   9.491   5.702  0.1924 -0.0532 -0.1498
  639XCA     C4 5742  11.675   9.665   5.835  0.0465  0.3357  0.0141
  639XCA     C5 5743  11.365   9.775   6.005 -0.0511 -0.2374  0.2142
  639XCA     C6 5744  11.120   9.965   6.338 -0.0613  0.1885  0.0339
  640XCA    COO 5745   0.246   6.497   9.461 -0.0528  0.0595  0.2305
  640XCA     C1 5746  -0.001   6.677   9.073 -0.3799 -0.0935 -0.1857
  640XCA     C2 5747  -0.139   6.753   8.725 -0.0403 -0.2574  0.0454
  640XCA     C3 5748  -0.043   6.899   8.340  0.1170  0.3141  0.0294
  640XCA     C4 5749  -0.275   6.885   7.940  0.1098 -0.2136  0.0544
  640XCA     C5 5750  -0.163   7.169   7.567  0.1911 -0.0601 -0.3606
  640XCA     C6 5751  -0.388   7.082   7.236 -0.1354 -0.0030 -0.3565
  641XCA    COO 5752   3.092  12.334   4.045 -0.0507  0.0732  0.0203
  641XCA     C1 5753   2.884  12.224   4.486 -0.1059  0.3435  0.1345
  641XCA     C2 5754   2.729  12.252   4.920 -0.0533  0.0353  0.2502
  641XCA     C3 5755   2.326  12.222   5.229 -0.0591 -0.0642 -0.2703
  641XCA     C4 5756   2.218  11.885   5.525 -0.3704 -0.2856 -0.0784
  641XCA     C5 5757   2.130  11.778   5.857 -0.2067 -0.0491 -0.0251
  641XCA     C6 5758   2.188  11.725   6.295  0.2809  0.1456  0.2336
  642PNCE   AM1 5759  11.728   3.042   5.670  0.0887  0.0141  0.0500
  642PNCE   AM2 5760  11.647   3.026   5.267 -0.0557  0.0585  0.1990
  642PNCE   T1A 5761  11.962   3.054   6.131 -0.0085  0.1993  0.0463
  642PNCE   C2A 5762  11.992   3.008   6.483  0.1875  0.3486  0.0688
  642PNCE   C3A 5763  12.002   2.888   6.833 -0.2314 -0.3429  0.0078
  642PNCE   C1B 5764  11.235   3.052   5.471  0.0195 -0.1561 -0.0515
  642PNCE   C2B 5765  10.858   3.265   5.581  0.1701 -0.1526 -0.3753
  642PNCE   C3B 5766  10.690   3.287   6.015 -0.1672  0.0005  0.0991
  642PNCE   D4B 5767  10.566   3.171   6.360  0.1864 -0.1767 -0.1140
  642PNCE   C5B 5768  10.309   3.487   6.539  0.0662 -0.0820  0.0723
  642PNCE   C6B 5769  10.268   3.655   6.906  0.1328  0.1504  0.0781
  643CHOL   ROH 5770   7.733   3.542   7.911 -0.0072 -0.0147 -0.0682
  643CHOL    R1 5771   7.746   3.823   7.881 -0.1238 -0.0009  0.0015
  643CHOL    R2 5772   7.925   3.947   7.711 -0.0690  0.1238  0.1448
  643CHOL    R3 5773   7.701   4.063   7.611 -0.0618  0.0337  0.0221
  643CHOL    R4 5774   7.920   4.239   7.527 -0.0735  0.0370  0.0062
  643CHOL    R5 5775   7.740   4.298   7.636 -0.1170  0.0525 -0.0763
  643CHOL    C1 5776   7.705   4.519   7.326 -0.0694 -0.0980 -0.1897
  643CHOL    C2 5777   7.767   4.741   7.068 -0.1858  0.0851  0.1425
  644PNCE   AM1 5778  12.157   3.830   4.727  0.0305 -0.0478  0.0782
  644PNCE   AM2 5779  11.883   3.740   4.859  0.3347 -0.1895 -0.3721
  644PNCE   T1A 5780  12.409   4.074   5.035  0.1571  0.1881 -0.0843
  644PNCE   C2A 5781  12.414   4.424   5.354  0.0589  0.4140 -0.1103
  644PNCE   C3A 5782  12.462   4.424   5.733  0.1748 -0.3137  0.3034
  644PNCE   C1B 5783  11.755   4.101   5.124 -0.2266 -0.1515  0.0991
  644PNCE   C2B 5784  11.903   4.501   5.206 -0.1319  0.1919  0.2857
  644PNCE   C3B 5785  12.094   4.741   5.572 -0.1607  0.1252  0.1400
  644PNCE   D4B 5786  12.390   4.983   5.877  0.1951  0.1879  0.2695
  644PNCE   C5B 5787  12.345   5.353   5.914  0.0195  0.2084  0.4300
  644PNCE   C6B 5788  12.436   5.615   6.144 -0.0361  0.0240 -0.2819
  645CHOL   ROH 5789   1.904  12.552   4.989  0.0657  0.0568 -0.1029
  645CHOL    R1 5790   1.892  12.575   5.271  0.1136  0.0759 -0.1038
  645CHOL    R2 5791   1.825  12.363   5.434  0.1229  0.0976 -0.0844
  645CHOL    R3 5792   2.060  12.423   5.556  0.1453  0.0823 -0.1164
  645CHOL    R4 5793   1.930  12.229   5.735  0.0080  0.3086  0.0533
  645CHOL    R5 5794   2.006  12.427   5.790  0.1130  0.3266 -0.1193
  645CHOL    C1 5795   2.213  12.208   6.025 -0.0378  0.4170  0.1035
  645CHOL    C2 5796   2.200  12.198   6.444  0.0975  0.0246  0.4040
  646PNCE   AM1 5797  12.899   3.566   5.436  0.1334 -0.1181 -0.0047
  646PNCE   AM2 5798  12.742   3.410   5.525 -0.0503  0.1497 -0.0153
  646PNCE   T1A 5799  12.856   3.797   5.859 -0.1160 -0.2383 -0.1480
  646PNCE   C2A 5800  12.782   4.125   6.147  0.1224  0.0907 -0.2323
  646PNCE   C3A 5801  12.440   4.463   6.219 -0.0261 -0.3548 -0.2089
  646PNCE   C1B 5802  12.759   3.038   5.807 -0.0550 -0.1833 -0.4139
  646PNCE   C2B 5803  12.790   2.576   6.053 -0.0921  0.1006  0.1056
  646PNCE   C3B 5804  12.937   2.250   6.249 -0.0044 -0.2959 -0.1668
  646PNCE   D4B 5805  12.846   1.939   6.640  0.2592 -0.2537  0.1394
  646PNCE   C5B 5806  12.586   2.136   6.981 -0.1537  0.1566  0.1761
  646PNCE   C6B 5807  12.559   2.104   7.335  0.0610  0.1381 -0.0419
  647XCA    COO 5808  14.358   9.059   5.002 -0.1737  0.4245  0.0004
  647XCA     C1 5809  14.276   8.942   5.470 -0.0164 -0.0338  0.3516
  647XCA     C2 5810  14.339   9.076   5.881 -0.2243 -0.1377  0.1367
  647XCA     C3 5811  14.559   8.895   6.322  0.2076  0.1727 -0.1041
  647XCA     C4 5812  14.888   8.754   6.630  0.1615  0.0390 -0.1461
  647XCA     C5 5813  15.228   8.461   6.690  0.1583 -0.0635  0.4264
  647XCA     C6 5814  15.167   8.183   6.322  0.1077 -0.1241  0.2206
  648CHOL   ROH 5815  10.764   6.702   6.201  0.3035  0.1271 -0.2912
  648CHOL    R1 5816  10.996   6.726   6.361  0.2436 -0.0723 -0.1704
  648CHOL    R2 5817  10.995   6.852   6.606  0.2250 -0.0721 -0.1696
  648CHOL    R3 5818  11.102   6.617   6.692 -0.0200 -0.1658 -0.1147
  648CHOL    R4 5819  11.143   6.805   6.915 -0.1034 -0.2430 -0.0335
  648CHOL    R5 5820  11.296   6.683   6.817 -0.0920 -0.3274  0.0878
  648CHOL    C1 5821  11.329   6.557   7.175 -0.5247 -0.4304  0.0973
  648CHOL    C2 5822  11.420   6.750   7.599  0.1013 -0.2157  0.0228
  649PNCE   AM1 5823  15.310   2.623   4.898 -0.0427 -0.4764 -0.0661
  649PNCE   AM2 5824  15.095   2.797   5.063  0.0551 -0.2113 -0.1042
  649PNCE   T1A 5825  15.566   2.266   4.937  0.2589  0.2760 -0.0336
  649PNCE   C2A 5826  16.001   2.119   5.014 -0.2082 -0.0013 -0.0581
  649PNCE   C3A 5827  16.093   1.682   4.967  0.1470 -0.2217  0.1292
  649PNCE   C1B 5828  15.246   2.576   5.426  0.2371 -0.2713 -0.1714
  649PNCE   C2B 5829  15.444   2.479   5.826  0.1474  0.0533  0.4146
  649PNCE   C3B 5830  15.353   2.311   6.203 -0.2318  0.1317 -0.1829
  649PNCE   D4B 5831  15.335   1.989   6.646  0.1509  0.0284  0.1504
  649PNCE   C5B 5832  15.550   2.328   7.003  0.2050  0.2602 -0.3064
  649PNCE   C6B 5833  15.824   2.427   7.259 -0.0649  0.0681  0.2182
  650CHOL   ROH 5834   7.781   1.839   8.031 -0.0850  0.2140 -0.0404
  650CHOL    R1 5835   7.769   2.010   7.805  0.0695  0.0495 -0.1750
  650CHOL    R2 5836   7.928   1.972   7.582 -0.0500 -0.3441 -0.1987
  650CHOL    R3 5837   7.690   1.975   7.452 -0.0915 -0.1317 -0.1238
  650CHOL    R4 5838   7.885   2.063   7.251 -0.1132 -0.0307 -0.1086
  650CHOL    R5 5839   7.702   2.166   7.309 -0.0566 -0.0049  0.0418
  650CHOL    C1 5840   7.635   2.117   6.937 -0.1889  0.3513  0.0141
  650CHOL    C2 5841   7.754   2.044   6.629  0.0558  0.1132  0.1815
  651PNCE   AM1 5842   7.115  13.844   5.739  0.0911  0.0999 -0.4873
  651PNCE   AM2 5843   6.877  13.857   5.980  0.2366  0.2282  0.1578
  651PNCE   T1A 5844   7.315  13.699   6.146 -0.0993 -0.0930 -0.0459
  651PNCE   C2A 5845   7.305  13.315   6.354 -0.2851 -0.1310  0.2877
  651PNCE   C3A 5846   7.606  13.373   6.478  0.3225 -0.0549 -0.1329
  651PNCE   C1B 5847   6.776  13.503   6.297 -0.1887  0.1731 -0.1714
  651PNCE   C2B 5848   6.883  13.319   6.700  0.0492 -0.1280 -0.4311
  651PNCE   C3B 5849   6.915  13.263   7.051  0.0698  0.0208 -0.0183
  651PNCE   D4B 5850   7.005  12.916   7.379 -0.0181 -0.1984 -0.2304
  651PNCE   C5B 5851   7.330  12.643   7.353 -0.2391  0.1932  0.2896
  651PNCE   C6B 5852   7.465  12.574   6.925 -0.2508 -0.1720 -0.0948
  652PNCE   AM1 5853  13.722   6.004   4.497 -0.1902 -0.1685 -0.1771
  652PNCE   AM2 5854  13.418   6.130   4.292  0.0236 -0.0285 -0.0663
  652PNCE   T1A 5855  13.817   6.024   4.961 -0.2567 -0.2798 -0.1197
  652PNCE   C2A 5856  13.865   6.272   5.387  0.0132 -0.0199  0.0889
  652PNCE   C3A 5857  13.820   6.479   5.836 -0.0909 -0.0261 -0.0097
  652PNCE   C1B 5858  13.333   6.203   4.731 -0.3034 -0.0180 -0.1980
  652PNCE   C2B 5859  13.427   6.435   5.098  0.0199 -0.2029 -0.0609
  652PNCE   C3B 5860  13.392   6.335   5.611  0.0402  0.1340  0.3618
  652PNCE   D4B 5861  13.289   6.211   6.104  0.1286 -0.1631  0.2909
  652PNCE   C5B 5862  12.898   6.317   6.330 -0.1073 -0.2474 -0.0620
  652PNCE   C6B 5863  12.667   6.585   6.579 -0.1464 -0.4113  0.0901
  653PNCE   AM1 5864   5.841  10.632   5.213 -0.2933  0.0168  0.3284
  653PNCE   AM2 5865   5.656  10.696   5.366 -0.1436 -0.3613  0.1940
  653PNCE   T1A 5866   6.166  10.289   5.356  0.2521 -0.0812  0.0614
  653PNCE   C2A 5867   6.413  10.163   5.758 -0.0304 -0.3502 -0.1174
  653PNCE   C3A 5868   6.380   9.919   6.111  0.3070  0.2601 -0.0869
  653PNCE   C1B 5869   5.421  10.447   5.817  0.0504 -0.0718  0.0106
  653PNCE   C2B 5870   5.493  10.346   6.279  0.1104  0.2889 -0.1894
  653PNCE   C3B 5871   5.376  10.478   6.613 -0.0522 -0.5518  0.1222
  653PNCE   D4B 5872   5.373  10.625   7.020 -0.1517 -0.0104  0.1844
  653PNCE   C5B 5873   5.236  10.458   7.496  0.0971 -0.2998  0.0950
  653PNCE   C6B 5874   5.263  10.232   7.867  0.0321  0.0075 -0.0640
  654PNCE   AM1 5875   2.273   1.415   4.730 -0.1630  0.1842  0.1600
  654PNCE   AM2 5876   2.612   1.214   4.763  0.1341 -0.3605  0.0078
  654PNCE   T1A 5877   2.181   1.506   5.108 -0.2215  0.2344  0.0173
  654PNCE   C2A 5878   2.036   1.662   5.510  0.2007 -0.0410  0.0458
  654PNCE   C3A 5879   1.908   2.056   5.681 -0.1878  0.1833  0.0148
  654PNCE   C1B 5880   2.573   1.174   5.172  0.0251  0.0074  0.2435
  654PNCE   C2B 5881   2.489   1.247   5.532  0.0542 -0.0483  0.1131
  654PNCE   C3B 5882   2.277   1.329   5.903 -0.0570  0.1309 -0.4676
  654PNCE   D4B 5883   2.383   1.280   6.285  0.2303 -0.1433  0.3220
  654PNCE   C5B 5884   2.739   1.511   6.617  0.1658 -0.0982  0.3613
  654PNCE   C6B 5885   2.978   1.648   6.996  0.1965  0.1099 -0.3430
  655CHOL   ROH 5886   7.532   2.242   4.647  0.2320  0.1752 -0.0350
  655CHOL    R1 5887   7.549   2.113   4.898 -0.0843  0.1715 -0.0118
  655CHOL    R2 5888   7.773   2.129   5.059 -0.1084 -0.2011  0.0648
  655CHOL    R3 5889   7.594   2.214   5.245 -0.0317  0.1359 -0.0076
  655CHOL    R4 5890   7.840   2.163   5.396 -0.1643 -0.2901  0.0856
  655CHOL    R5 5891   7.643   2.081   5.438 -0.3329  0.0609  0.0238
  655CHOL    C1 5892   7.712   2.262   5.767 -0.1249 -0.0255  0.0297
  655CHOL    C2 5893   7.831   2.305   6.121 -0.0952  0.0669  0.2317
  656PNCE   AM1 5894   2.765   2.031   4.245 -0.2165  0.2738 -0.1922
  656PNCE   AM2 5895   2.788   2.311   4.019  0.1808  0.1675  0.0536
  656PNCE   T1A 5896   2.313   2.136   4.301  0.0128 -0.2205  0.2358
  656PNCE   C2A 5897   2.064   2.441   4.571  0.0465  0.3037 -0.0945
  656PNCE   C3A 5898   2.130   2.840   4.582  0.4678 -0.0100 -0.0580
  656PNCE   C1B 5899   2.633   2.461   4.418 -0.1041 -0.2812  0.0120
  656PNCE   C2B 5900   2.779   2.775   4.593 -0.0422  0.3357 -0.0297
  656PNCE   C3B 5901   2.471   3.104   4.856 -0.0010 -0.3168 -0.1426
  656PNCE   D4B 5902   2.062   3.090   5.105  0.4691 -0.2492  0.2124
  656PNCE   C5B 5903   2.008   2.875   5.499 -0.3424  0.1339 -0.1039
  656PNCE   C6B 5904   2.079   2.990   5.877 -0.1016 -0.1350  0.0710
  657CHOL   ROH 5905  10.093  13.491   8.269  0.0317 -0.1856 -0.1746
  657CHOL    R1 5906  10.111  13.551   7.993 -0.0986 -0.2542 -0.1995
  657CHOL    R2 5907   9.893  13.540   7.824 -0.2408 -0.0293 -0.0411
  657CHOL    R3 5908   9.967  13.796   7.765  0.0179 -0.1213 -0.1310
  657CHOL    R4 5909   9.789  13.716   7.546 -0.3702  0.1136  0.0963
  657CHOL    R5 5910   9.991  13.797   7.527 -0.2868 -0.1500 -0.1628
  657CHOL    C1 5911   9.796  14.059   7.329 -0.2026  0.1103  0.0918
  657CHOL    C2 5912   9.667  14.381   7.131  0.0139  0.3616  0.0719
  658CHOL   ROH 5913   3.404   7.746   9.470 -0.1479 -0.0733 -0.1832
  658CHOL    R1 5914   3.318   7.670   9.211 -0.0333 -0.1350 -0.2035
  658CHOL    R2 5915   3.413   7.790   8.982 -0.0490 -0.0820 -0.1802
  658CHOL    R3 5916   3.471   7.534   8.910  0.1298 -0.0484 -0.1611
  658CHOL    R4 5917   3.499   7.689   8.662 -0.2157 -0.0779 -0.2275
  658CHOL    R5 5918   3.376   7.511   8.691 -0.0306 -0.1878 -0.0810
  658CHOL    C1 5919   3.604   7.390   8.409 -0.1450 -0.0441 -0.2372
  658CHOL    C2 5920   3.379   7.398   8.190  0.0827 -0.1040  0.1250
  659PNCE   AM1 5921   9.747   8.566   5.079 -0.0602  0.0982  0.0439
  659PNCE   AM2 5922   9.935   8.724   4.898  0.0154 -0.0383  0.0854
  659PNCE   T1A 5923   9.653   8.511   5.503  0.3296 -0.1000  0.1492
  659PNCE   C2A 5924   9.607   8.312   5.954  0.1132 -0.2065 -0.4116
  659PNCE   C3A 5925   9.323   8.292   6.212 -0.3280  0.1607 -0.3373
  659PNCE   C1B 5926  10.249   8.813   5.289 -0.2210  0.1051 -0.1608
  659PNCE   C2B 5927  10.368   9.003   5.611  0.0626 -0.1892 -0.0879
  659PNCE   C3B 5928  10.248   9.177   5.964  0.0510 -0.0321  0.1383
  659PNCE   D4B 5929   9.848   9.333   6.031 -0.4553  0.3482  0.2758
  659PNCE   C5B 5930   9.729   9.361   6.476 -0.0662  0.2707 -0.2434
  659PNCE   C6B 5931   9.357   9.362   6.664  0.0819 -0.0838  0.1729
  660CHOL   ROH 5932   8.236   3.519   6.719  0.0561  0.0625  0.0476
  660CHOL    R1 5933   8.483   3.621   6.626  0.0957  0.1143  0.2068
  660CHOL    R2 5934   8.690   3.688   6.796  0.1316 -0.2568  0.3176
  660CHOL    R3 5935   8.832   3.518   6.639  0.0537 -0.0594  0.0265
  660CHOL    R4 5936   9.014   3.743   6.691  0.1128 -0.1653  0.3067
  660CHOL    R5 5937   8.959   3.663   6.495  0.0414  0.1292  0.1997
  660CHOL    C1 5938   9.337   3.615   6.481  0.0288  0.0732  0.0270
  660CHOL    C2 5939   9.726   3.477   6.588  0.1294  0.0222 -0.1303
  661PNCE   AM1 5940   2.765   7.055   5.410  0.1228  0.2279  0.2060
  661PNCE   AM2 5941   2.527   6.824   5.277 -0.1535  0.0852 -0.0271
  661PNCE   T1A 5942   2.667   7.101   5.839 -0.0051 -0.1318  0.1552
  661PNCE   C2A 5943   2.403   7.022   6.139  0.0655  0.3423  0.2035
  661PNCE   C3A 5944   2.510   6.997   6.552 -0.1217  0.4274 -0.3682
  661PNCE   C1B 5945   2.418   6.569   5.681 -0.0396  0.2855 -0.0421
  661PNCE   C2B 5946   2.496   6.272   5.994  0.3988  0.1868  0.0401
  661PNCE   C3B 5947   2.313   6.142   6.341 -0.4109  0.0051 -0.0275
  661PNCE   D4B 5948   2.100   5.951   6.683  0.2764 -0.1786  0.1082
  661PNCE   C5B 5949   2.063   6.071   7.081  0.2539 -0.2779 -0.0182
  661PNCE   C6B 5950   2.050   6.453   7.233 -0.2551 -0.0710 -0.2582
  662PNCE   AM1 5951   0.250   5.676   5.049  0.2134  0.1084 -0.2180
  662PNCE   AM2 5952   0.549   5.475   5.170  0.0117 -0.2827  0.1724
  662PNCE   T1A 5953   0.186   5.883   5.520 -0.1809 -0.2899 -0.1009
  662PNCE   C2A 5954   0.277   5.894   5.927 -0.1918  0.3735  0.1021
  662PNCE   C3A 5955   0.198   5.786   6.307  0.0889  0.3297  0.1938
  662PNCE   C1B 5956   0.587   5.526   5.639 -0.0927 -0.1760  0.1484
  662PNCE   C2B 5957   0.714   5.523   6.031 -0.0278 -0.0472 -0.1662
  662PNCE   C3B 5958   0.634   5.594   6.448  0.0863  0.1070  0.0833
  662PNCE   D4B 5959   0.323   5.494   6.794  0.0198  0.0150  0.0076
  662PNCE   C5B 5960  -0.080   5.712   6.884  0.1530 -0.0950  0.2521
  662PNCE   C6B 5961  -0.284   6.019   7.113  0.1002  0.1447 -0.2075
  663CHOL   ROH 5962   2.023   6.349   5.473 -0.3751  0.1780 -0.0462
  663CHOL    R1 5963   1.898   6.210   5.687 -0.3812  0.0982 -0.0999
  663CHOL    R2 5964   1.999   6.212   5.944 -0.2256 -0.2333 -0.1490
  663CHOL    R3 5965   1.748   6.297   6.007 -0.1104 -0.0488  0.0696
  663CHOL    R4 5966   1.845   6.163   6.249 -0.1183 -0.4051 -0.1223
  663CHOL    R5 5967   1.659   6.122   6.143 -0.2146 -0.1056 -0.0734
  663CHOL    C1 5968   1.520   6.214   6.486  0.0523 -0.3321  0.0984
  663CHOL    C2 5969   1.524   6.122   6.902  0.0928  0.2338  0.1870
  664XCA    COO 5970  15.711   4.575   5.315  0.2342  0.1049 -0.0924
  664XCA     C1 5971  15.499   4.505   5.742  0.0643 -0.0841 -0.1563
  664XCA     C2 5972  15.458   4.510   6.061 -0.2975  0.0768  0.0024
  664XCA     C3 5973  15.371   4.444   6.530  0.1680  0.0081 -0.0952
  664XCA     C4 5974  15.350   4.392   6.943 -0.0798  0.1816 -0.4827
  664XCA     C5 5975  15.162   4.581   7.267 -0.1253  0.0056  0.1178
  664XCA     C6 5976  15.010   4.916   7.386 -0.0705 -0.2347  0.2498
  665XCA    COO 5977   0.841  13.532   4.098  0.3108  0.2126  0.1259
  665XCA     C1 5978   0.637  13.507   4.493 -0.0645  0.2464 -0.0255
  665XCA     C2 5979   0.415  13.587   4.862  0.1959  0.0046  0.0174
  665XCA     C3 5980   0.442  13.592   5.302 -0.0259 -0.2853  0.2206
  665XCA     C4 5981   0.246  13.712   5.699  0.0853  0.0189 -0.0106
  665XCA     C5 5982   0.098  13.806   6.103  0.2424  0.0807 -0.2549
  665XCA     C6 5983  -0.055  13.742   6.541  0.0345  0.0258  0.0933
  666XCA    COO 5984  12.497   7.396   8.525  0.1086  0.2996 -0.0256
  666XCA     C1 5985  12.063   7.615   8.439  0.3253  0.0170 -0.2023
  666XCA     C2 5986  11.804   7.618   8.197 -0.0235  0.0990 -0.2886
  666XCA     C3 5987  11.661   7.608   7.805 -0.0992 -0.0564  0.1908
  666XCA     C4 5988  11.425   7.662   7.311  0.1922 -0.1387  0.0096
  666XCA     C5 5989  11.698   7.489   7.000  0.4035 -0.3197  0.1791
  666XCA     C6 5990  11.792   7.023   6.864 -0.2532  0.1078 -0.3641
  667CHOL   ROH 5991  14.681   9.818   6.865 -0.0636 -0.1963 -0.2775
  667CHOL    R1 5992  14.691  10.098   6.825 -0.1761 -0.1735 -0.1444
  667CHOL    R2 5993  14.922  10.230   6.750 -0.1896 -0.0243  0.0793
  667CHOL    R3 5994  14.764  10.324   6.549 -0.0932 -0.0099  0.0079
  667CHOL    R4 5995  15.008  10.485   6.533  0.0497 -0.2224 -0.0654
  667CHOL    R5 5996  14.804  10.560   6.548  0.1070 -0.0402 -0.1277
  667CHOL    C1 5997  14.910  10.722   6.219  0.2795 -0.3243 -0.2168
  667CHOL    C2 5998  15.253  10.965   6.251  0.0574 -0.3150  0.0060
  668PNCE   AM1 5999   9.637  12.877   5.001 -0.1026  0.1976  0.0496
  668PNCE   AM2 6000   9.805  13.067   4.758  0.3800 -0.3230  0.0839
  668PNCE   T1A 6001   9.353  12.882   5.395 -0.1254  0.1489  0.2215
  668PNCE   C2A 6002   9.541  12.830   5.892  0.0837  0.2040  0.0169
  668PNCE   C3A 6003   9.665  12.350   6.080  0.0543  0.3971 -0.1050
  668PNCE   C1B 6004  10.051  13.291   5.110  0.0695 -0.0083  0.2639
  668PNCE   C2B 6005  10.155  13.620   5.313 -0.0667 -0.1654  0.0337
  668PNCE   C3B 6006  10.054  13.911   5.684 -0.0030  0.2018 -0.4930
  668PNCE   D4B 6007  10.220  14.088   6.017  0.1257 -0.0528  0.0678
  668PNCE   C5B 6008  10.675  14.068   6.039 -0.5417 -0.2639  0.1204
  668PNCE   C6B 6009  11.047  13.709   6.120 -0.0720 -0.2083 -0.1598
  669CHOL   ROH 6010  13.691   7.602   8.638  0.1422 -0.0924 -0.1118
  669CHOL    R1 6011  13.908   7.612   8.456  0.0930 -0.0757 -0.1713
  669CHOL    R2 6012  14.168   7.555   8.532  0.1298 -0.0060 -0.2290
  669CHOL    R3 6013  14.154   7.377   8.327  0.1088 -0.0452 -0.1928
  669CHOL    R4 6014  14.418   7.332   8.446  0.1365  0.0113 -0.2524
  669CHOL    R5 6015  14.376   7.374   8.236  0.0835 -0.0340 -0.2454
  669CHOL    C1 6016  14.550   7.036   8.202  0.1207 -0.0153 -0.2321
  669CHOL    C2 6017  14.775   6.724   8.417  0.2036 -0.1150 -0.2661
  670XCA    COO 6018   9.079  10.267   8.592 -0.1838 -0.1825  0.0128
  670XCA     C1 6019   8.850  10.408   8.141  0.0323 -0.2423 -0.0660
  670XCA     C2 6020   8.964  10.566   7.634  0.1869 -0.1833 -0.3770
  670XCA     C3 6021   9.001  10.590   7.165  0.5142  0.1153  0.0332
  670XCA     C4 6022   8.955  10.446   6.830 -0.2938  0.0305  0.0017
  670XCA     C5 6023   8.613  10.374   6.519 -0.1243  0.0624 -0.0825
  670XCA     C6 6024   8.423  10.083   6.274  0.1482  0.0161 -0.0107
  671PNCE   AM1 6025   9.899   6.802   4.611 -0.0568 -0.1052 -0.0704
  671PNCE   AM2 6026   9.591   6.694   4.683  0.0242  0.0337 -0.1221
  671PNCE   T1A 6027  10.112   6.934   5.045  0.2014 -0.2210 -0.0443
  671PNCE   C2A 6028  10.156   6.853   5.520 -0.1375  0.0390  0.1121
  671PNCE   C3A 6029  10.302   6.536   5.804  0.0792 -0.2381 -0.1103
  671PNCE   C1B 6030   9.534   6.670   5.075  0.1147 -0.0825  0.0141
  671PNCE   C2B 6031   9.637   6.478   5.419 -0.0043  0.4481  0.1508
  671PNCE   C3B 6032   9.824   6.282   5.837 -0.2670  0.1874  0.1184
  671PNCE   D4B 6033  10.001   6.179   6.240  0.0903 -0.3087 -0.1177
  671PNCE   C5B 6034  10.145   6.350   6.670 -0.0203  0.0120 -0.2250
  671PNCE   C6B 6035  10.311   6.301   6.978  0.0679 -0.0082  0.0645
  672PNCE   AM1 6036  15.265   4.010   5.035 -0.0405  0.1538 -0.4181
  672PNCE   AM2 6037  15.629   4.100   5.114 -0.1015  0.0531 -0.1947
  672PNCE   T1A 6038  15.180   3.833   5.401 -0.0155 -0.0804 -0.1505
  672PNCE   C2A 6039  15.006   3.574   5.785 -0.2669 -0.0185  0.0885
  672PNCE   C3A 6040  14.749   3.342   5.872 -0.1757  0.2840 -0.1647
  672PNCE   C1B 6041  15.552   4.060   5.555 -0.2339 -0.0874 -0.1017
  672PNCE   C2B 6042  15.595   4.006   6.038 -0.0260  0.1374 -0.1892
  672PNCE   C3B 6043  15.701   3.917   6.437  0.1116 -0.2020 -0.4140
  672PNCE   D4B 6044  15.956   3.551   6.655  0.1402  0.0152 -0.0674
  672PNCE   C5B 6045  16.248   3.525   6.236 -0.2536  0.1456  0.1353
  672PNCE   C6B 6046  16.485   3.751   5.903  0.3108 -0.1985 -0.1737
  673CHOL   ROH 6047   3.588  11.498   4.746  0.0342 -0.2748  0.0859
  673CHOL    R1 6048   3.565  11.546   5.024 -0.0328 -0.2251  0.0710
  673CHOL    R2 6049   3.417  11.755   5.127  0.1759 -0.0384 -0.0150
  673CHOL    R3 6050   3.296  11.557   5.268 -0.1312  0.1212 -0.0452
  673CHOL    R4 6051   3.310  11.783   5.455  0.1982  0.0939 -0.0175
  673CHOL    R5 6052   3.382  11.580   5.490 -0.1022 -0.0279 -0.0352
  673CHOL    C1 6053   3.133  11.613   5.778 -0.0771  0.3205 -0.0473
  673CHOL    C2 6054   3.105  11.712   6.162 -0.0113  0.0166 -0.0081
  674CHOL   ROH 6055   8.757   6.926   5.447 -0.0071 -0.2232 -0.0648
  674CHOL    R1 6056   8.671   6.849   5.705 -0.1091 -0.1023 -0.0615
  674CHOL    R2 6057   8.787   6.948   5.936 -0.0158 -0.2019 -0.0645
  674CHOL    R3 6058   8.531   7.015   5.997  0.0503  0.0847 -0.0891
  674CHOL    R4 6059   8.659   6.970   6.257 -0.0196 -0.0416 -0.0765
  674CHOL    R5 6060   8.476   6.877   6.185 -0.1181  0.1552 -0.0852
  674CHOL    C1 6061   8.345   7.046   6.501  0.0403  0.3207 -0.1066
  674CHOL    C2 6062   8.155   7.122   6.844  0.1985  0.0564 -0.0565
  675CHOL   ROH 6063  15.095  12.261   4.841  0.0384 -0.0717  0.0500
  675CHOL    R1 6064  15.082  12.092   5.068  0.0698 -0.1393  0.0024
  675CHOL    R2 6065  15.290  12.068   5.248  0.0759 -0.1528 -0.0039
  675CHOL    R3 6066  15.099  12.133   5.429  0.0636 -0.2381  0.0137
  675CHOL    R4 6067  15.339  12.083   5.590  0.1129 -0.0759 -0.0127
  675CHOL    R5 6068  15.143  11.991   5.617  0.1709 -0.1848  0.0276
  675CHOL    C1 6069  15.187  12.154   5.959  0.1230 -0.1113 -0.0015
  675CHOL    C2 6070  15.061  12.249   6.336 -0.1824 -0.2790  0.2929
  676PNCE   AM1 6071   9.376   8.846   4.986  0.0508  0.1331 -0.1470
  676PNCE   AM2 6072   9.156   8.891   4.732 -0.1036 -0.2627 -0.2129
  676PNCE   T1A 6073   9.371   8.974   5.349  0.0262 -0.1354  0.1358
  676PNCE   C2A 6074   9.443   9.281   5.736 -0.0593  0.2244  0.3574
  676PNCE   C3A 6075   9.266   9.638   5.923 -0.0861 -0.2087 -0.0458
  676PNCE   C1B 6076   9.052   9.218   5.045  0.4162  0.0915  0.0532
  676PNCE   C2B 6077   9.041   9.532   5.416  0.2251  0.0056  0.2660
  676PNCE   C3B 6078   8.738   9.770   5.689 -0.0346 -0.1010  0.0043
  676PNCE   D4B 6079   8.399   9.937   5.784  0.0465  0.0568  0.0043
  676PNCE   C5B 6080   8.106   9.667   5.888  0.0822  0.0365 -0.2085
  676PNCE   C6B 6081   8.042   9.182   5.736 -0.0606  0.1419 -0.0116
  677PNCE   AM1 6082  10.145   2.619   4.664  0.1901  0.0723 -0.0973
  677PNCE   AM2 6083   9.924   2.426   4.784  0.1882 -0.0367  0.3145
  677PNCE   T1A 6084  10.374   2.865   5.017 -0.1576 -0.0132  0.1711
  677PNCE   C2A 6085  10.426   3.045   5.423 -0.1639 -0.1015 -0.1569
  677PNCE   C3A 6086  10.398   3.407   5.505 -0.1836  0.2685 -0.0385
  677PNCE   C1B 6087   9.907   2.373   5.204  0.1365 -0.0236  0.0435
  677PNCE   C2B 6088   9.857   2.014   5.499 -0.0290 -0.1121  0.0593
  677PNCE   C3B 6089   9.700   1.706   5.861  0.0303 -0.0042  0.0023
  677PNCE   D4B 6090   9.444   1.528   6.114  0.1241  0.0248  0.1901
  677PNCE   C5B 6091   9.250   1.083   6.056  0.0106  0.0819  0.0273
  677PNCE   C6B 6092   9.468   0.799   6.206 -0.0011 -0.2192 -0.0301
  678XCA    COO 6093   5.611  13.025   4.973  0.2330  0.3549 -0.0242
  678XCA     C1 6094   6.022  12.976   5.035  0.0184 -0.0994  0.1265
  678XCA     C2 6095   6.329  13.141   5.313  0.0561  0.0272 -0.0245
  678XCA     C3 6096   6.418  13.200   5.694  0.1881  0.1088 -0.4081
  678XCA     C4 6097   6.399  13.180   6.148  0.1708 -0.1445 -0.1379
  678XCA     C5 6098   6.538  13.007   6.559 -0.0388  0.1468  0.3131
  678XCA     C6 6099   6.989  12.860   6.702  0.0377  0.4074 -0.3072
  679CHOL   ROH 6100   8.878   0.485   8.264  0.1185  0.0856  0.1835
  679CHOL    R1 6101   8.939   0.662   8.051  0.0832  0.0414  0.1367
  679CHOL    R2 6102   9.131   0.605   7.861 -0.0626 -0.0708  0.0230
  679CHOL    R3 6103   8.927   0.653   7.688 -0.1431  0.0282  0.1425
  679CHOL    R4 6104   9.169   0.729   7.541 -0.1947 -0.0324  0.0211
  679CHOL    R5 6105   8.993   0.853   7.573 -0.1358  0.0251  0.1392
  679CHOL    C1 6106   9.000   0.846   7.191 -0.3472  0.0829  0.1322
  679CHOL    C2 6107   9.141   1.115   6.823  0.0720 -0.0174 -0.0246
  680XCA    COO 6108   7.044   2.604   8.158 -0.1097 -0.1306  0.0782
  680XCA     C1 6109   7.098   2.567   7.675  0.0937  0.1411 -0.2878
  680XCA     C2 6110   6.966   2.725   7.367 -0.1140 -0.0983  0.0058
  680XCA     C3 6111   7.186   3.061   7.094  0.2058  0.0170  0.1236
  680XCA     C4 6112   7.238   3.445   6.851 -0.1717 -0.0208 -0.0633
  680XCA     C5 6113   7.505   3.752   6.995 -0.0466  0.2215  0.1196
  680XCA     C6 6114   7.746   4.099   7.138 -0.3172  0.0339 -0.0906
  681CHOL   ROH 6115  12.828   5.179   7.267 -0.1235 -0.1621  0.2101
  681CHOL    R1 6116  13.007   5.002   7.397 -0.0635 -0.0229  0.3197
  681CHOL    R2 6117  12.942   4.869   7.630 -0.1464 -0.1564  0.2212
  681CHOL    R3 6118  13.012   4.649   7.486  0.2053 -0.0484  0.2169
  681CHOL    R4 6119  13.014   4.559   7.765 -0.2616 -0.1994  0.1848
  681CHOL    R5 6120  13.177   4.540   7.621  0.0134 -0.0511  0.4589
  681CHOL    C1 6121  13.122   4.173   7.709  0.0013 -0.1231  0.1596
  681CHOL    C2 6122  13.006   3.886   7.828 -0.2455  0.0657 -0.0795
  682PNCE   AM1 6123  14.525   3.808   8.686 -0.2023  0.0325  0.0194
  682PNCE   AM2 6124  14.362   4.120   8.796 -0.0499  0.2044  0.0824
  682PNCE   T1A 6125  14.527   3.953   8.253 -0.0362 -0.0452 -0.1119
  682PNCE   C2A 6126  14.636   3.976   7.849  0.1576 -0.2126 -0.1514
  682PNCE   C3A 6127  14.606   3.786   7.433 -0.0529  0.2017  0.1424
  682PNCE   C1B 6128  14.635   4.374   8.557 -0.1315 -0.1786 -0.1587
  682PNCE   C2B 6129  14.592   4.555   8.224 -0.2493 -0.3272  0.0003
  682PNCE   C3B 6130  14.348   5.049   8.178 -0.0085  0.1549 -0.0596
  682PNCE   D4B 6131  14.308   5.497   8.027 -0.0581 -0.2675 -0.0089
  682PNCE   C5B 6132  14.186   5.573   7.667  0.0751  0.1038  0.2822
  682PNCE   C6B 6133  14.056   5.816   7.402 -0.0629 -0.0600 -0.0322
  683CHOL   ROH 6134   9.662   7.174   4.907  0.1344 -0.0311  0.0228
  683CHOL    R1 6135   9.686   7.170   5.189  0.0503 -0.0448  0.0300
  683CHOL    R2 6136   9.515   7.025   5.350  0.0273 -0.0865 -0.0306
  683CHOL    R3 6137   9.746   6.918   5.445  0.0186 -0.0505  0.0317
  683CHOL    R4 6138   9.563   6.913   5.673 -0.0257 -0.0360 -0.0050
  683CHOL    R5 6139   9.762   7.001   5.669 -0.0342 -0.0176  0.0229
  683CHOL    C1 6140   9.808   6.747   5.950 -0.0649  0.0271  0.0683
  683CHOL    C2 6141   9.662   6.538   6.247  0.0101 -0.1196  0.0103
  684PNCE   AM1 6142   6.129  11.296   4.925  0.0289  0.0369 -0.2341
  684PNCE   AM2 6143   6.520  11.165   4.837  0.0763 -0.0522  0.1173
  684PNCE   T1A 6144   6.047  11.435   5.455  0.2862 -0.1489  0.1398
  684PNCE   C2A 6145   6.046  11.689   5.792 -0.3333 -0.1320 -0.3035
  684PNCE   C3A 6146   6.471  11.944   5.903 -0.2875  0.0715  0.2288
  684PNCE   C1B 6147   6.558  11.312   5.323 -0.0592  0.0314  0.2135
  684PNCE   C2B 6148   6.352  11.128   5.729 -0.4430  0.3068 -0.2136
  684PNCE   C3B 6149   6.009  11.217   5.929  0.0099 -0.2301  0.0687
  684PNCE   D4B 6150   5.745  11.295   6.292 -0.0757  0.0264  0.0220
  684PNCE   C5B 6151   6.022  11.200   6.680 -0.1166 -0.0104  0.1300
  684PNCE   C6B 6152   6.002  11.435   7.077  0.0534 -0.0864 -0.3649
  685CHOL   ROH 6153  12.049   1.432   6.719  0.0001  0.0155 -0.0205
  685CHOL    R1 6154  12.293   1.291   6.697  0.1064  0.2144 -0.1514
  685CHOL    R2 6155  12.305   1.016   6.683  0.3398  0.2017  0.1481
  685CHOL    R3 6156  12.447   1.065   6.457  0.0207  0.0846 -0.0834
  685CHOL    R4 6157  12.503   0.784   6.519  0.2548  0.1725  0.0871
  685CHOL    R5 6158  12.650   0.942   6.485  0.1266  0.2235 -0.2413
  685CHOL    C1 6159  12.751   0.696   6.211 -0.0943  0.0456 -0.1659
  685CHOL    C2 6160  12.956   0.469   5.830 -0.3701  0.1130 -0.3778
  686XCA    COO 6161   0.892   6.737   9.333  0.0683 -0.0794  0.1387
  686XCA     C1 6162   0.800   6.812   8.913 -0.0602 -0.0929 -0.2290
  686XCA     C2 6163   0.886   6.902   8.510  0.2210  0.0517 -0.0809
  686XCA     C3 6164   0.981   6.896   8.114 -0.1979 -0.1820  0.0484
  686XCA     C4 6165   1.147   6.810   7.688 -0.1951  0.1319 -0.1870
  686XCA     C5 6166   1.114   6.502   7.356  0.1579 -0.0246  0.2839
  686XCA     C6 6167   1.033   6.073   7.300  0.1695 -0.0961 -0.2649
  687PNCE   AM1 6168   5.129  15.754   8.580 -0.0796 -0.2327 -0.2127
  687PNCE   AM2 6169   5.413  15.766   8.518 -0.1016  0.2017 -0.0397
  687PNCE   T1A 6170   4.942  15.377   8.401 -0.0248  0.0995  0.0163
  687PNCE   C2A 6171   4.686  15.204   8.058 -0.4919 -0.2227 -0.0344
  687PNCE   C3A 6172   4.782  14.956   7.756 -0.0287 -0.0406 -0.2298
  687PNCE   C1B 6173   5.429  15.338   8.238  0.4195  0.3998 -0.1425
  687PNCE   C2B 6174   5.263  15.122   7.849 -0.4163  0.2687  0.0068
  687PNCE   C3B 6175   5.231  15.191   7.499 -0.2583 -0.0819 -0.0035
  687PNCE   D4B 6176   4.910  15.157   7.188  0.0496  0.4925 -0.1427
  687PNCE   C5B 6177   4.510  15.283   7.145  0.1348  0.1127 -0.0581
  687PNCE   C6B 6178   4.391  15.766   6.920 -0.0014  0.0174  0.0751
  688CHOL   ROH 6179   9.793   7.062   8.134 -0.0767 -0.0980  0.0042
  688CHOL    R1 6180   9.699   7.119   7.873 -0.2601 -0.0823  0.0718
  688CHOL    R2 6181   9.833   7.037   7.646 -0.2099  0.2627 -0.0280
  688CHOL    R3 6182   9.593   6.927   7.583 -0.0668 -0.0751 -0.0053
  688CHOL    R4 6183   9.754   6.899   7.340 -0.1093  0.3445 -0.0917
  688CHOL    R5 6184   9.557   6.990   7.355 -0.2539  0.0271  0.0500
  688CHOL    C1 6185   9.482   6.715   7.102  0.0838  0.0751 -0.1074
  688CHOL    C2 6186   9.187   6.499   6.934 -0.1247  0.1988  0.2145
  689CHOL   ROH 6187   1.464   5.987   9.234 -0.2453  0.1737  0.0386
  689CHOL    R1 6188   1.538   6.021   8.963 -0.1135  0.2910  0.0884
  689CHOL    R2 6189   1.404   5.897   8.756  0.2568  0.0276 -0.0012
  689CHOL    R3 6190   1.381   6.151   8.661 -0.1426 -0.0122 -0.0310
  689CHOL    R4 6191   1.382   5.982   8.421  0.4470 -0.0353 -0.0312
  689CHOL    R5 6192   1.513   6.152   8.461  0.0783  0.2328  0.1070
  689CHOL    C1 6193   1.348   6.269   8.138  0.1827 -0.1094 -0.0767
  689CHOL    C2 6194   1.391   6.008   7.796  0.0094  0.0515 -0.0283
  690PNCE   AM1 6195   8.858   3.285   4.262  0.4311  0.1189  0.0211
  690PNCE   AM2 6196   9.013   3.560   4.341  0.0892  0.0752 -0.0349
  690PNCE   T1A 6197   8.529   3.391   4.488 -0.0325 -0.0355 -0.1874
  690PNCE   C2A 6198   8.333   3.297   4.849  0.0554 -0.0135  0.1791
  690PNCE   C3A 6199   8.195   3.089   5.312  0.1057 -0.1072 -0.0837
  690PNCE   C1B 6200   8.853   3.744   4.692  0.0244 -0.0003 -0.2499
  690PNCE   C2B 6201   8.609   3.968   5.040  0.1238  0.0452 -0.0030
  690PNCE   C3B 6202   8.575   4.100   5.501  0.1840 -0.0644  0.0401
  690PNCE   D4B 6203   8.715   4.113   5.854 -0.2601  0.0738 -0.1487
  690PNCE   C5B 6204   9.039   4.377   6.028 -0.3296  0.0995  0.0717
  690PNCE   C6B 6205   9.469   4.507   5.867  0.0072 -0.1637  0.0692
  691PNCE   AM1 6206  12.255   9.799   4.150 -0.1547 -0.1655 -0.0938
  691PNCE   AM2 6207  12.517  10.010   4.314 -0.0152  0.1010 -0.1827
  691PNCE   T1A 6208  12.032  10.131   4.347  0.1325 -0.0543  0.0158
  691PNCE   C2A 6209  11.754  10.280   4.699  0.1455  0.0154 -0.0210
  691PNCE   C3A 6210  11.572  10.611   4.897  0.1891 -0.1971  0.0474
  691PNCE   C1B 6211  12.673  10.458   4.437  0.0325 -0.2401  0.2845
  691PNCE   C2B 6212  12.863  10.894   4.619 -0.1390  0.2233  0.0934
  691PNCE   C3B 6213  12.724  11.322   4.742 -0.2375 -0.3210 -0.3398
  691PNCE   D4B 6214  12.724  11.710   5.089 -0.0005 -0.0326 -0.3176
  691PNCE   C5B 6215  12.465  11.831   5.545  0.2968  0.2689 -0.3462
  691PNCE   C6B 6216  12.839  11.948   5.835  0.3208  0.0321 -0.1126
  692PNCE   AM1 6217   6.972  10.919   5.144 -0.1004  0.4453 -0.1690
  692PNCE   AM2 6218   6.714  10.831   5.203 -0.0292  0.4530 -0.1193
  692PNCE   T1A 6219   7.093  10.508   5.453  0.0250 -0.4963 -0.0586
  692PNCE   C2A 6220   7.271  10.335   5.832  0.2013  0.1628 -0.3000
  692PNCE   C3A 6221   7.153  10.393   6.264  0.1588  0.2301 -0.0788
  692PNCE   C1B 6222   6.776  10.766   5.695 -0.0443 -0.2238  0.1400
  692PNCE   C2B 6223   6.772  10.415   5.987 -0.0794  0.1673 -0.2474
  692PNCE   C3B 6224   6.535  10.417   6.378  0.0863  0.2786  0.2832
  692PNCE   D4B 6225   6.426  10.275   6.819 -0.1693 -0.1882 -0.2399
  692PNCE   C5B 6226   6.416   9.854   6.746  0.0270  0.1802 -0.0449
  692PNCE   C6B 6227   6.004   9.657   6.731  0.3986 -0.3174 -0.0344
  693CHOL   ROH 6228   9.106   4.899   8.598  0.0586  0.1387  0.0475
  693CHOL    R1 6229   8.957   4.876   8.358 -0.0010  0.0721  0.0885
  693CHOL    R2 6230   8.968   5.066   8.158 -0.1408  0.0791  0.0771
  693CHOL    R3 6231   9.031   4.852   8.003 -0.0876  0.1024  0.0698
  693CHOL    R4 6232   8.972   5.067   7.812  0.0884  0.1510  0.0799
  693CHOL    R5 6233   8.882   4.868   7.816  0.0434  0.1748 -0.0243
  693CHOL    C1 6234   9.034   4.866   7.466  0.2717  0.2146  0.0748
  693CHOL    C2 6235   9.226   4.808   7.085 -0.0733  0.1106 -0.3157
  694PNCE   AM1 6236   3.794   5.509   4.808  0.0513 -0.0291  0.1226
  694PNCE   AM2 6237   3.681   5.187   4.603  0.2295  0.0676 -0.1947
  694PNCE   T1A 6238   3.680   5.067   5.057 -0.0503  0.3988 -0.1317
  694PNCE   C2A 6239   3.501   4.631   5.076  0.0124 -0.0927  0.2276
  694PNCE   C3A 6240   3.439   4.244   5.413  0.1729  0.0566 -0.2904
  694PNCE   C1B 6241   3.328   5.077   4.694 -0.0335  0.1446  0.1608
  694PNCE   C2B 6242   3.142   4.998   5.096 -0.1785 -0.0879 -0.1274
  694PNCE   C3B 6243   2.911   5.031   5.481  0.5354  0.1148 -0.1547
  694PNCE   D4B 6244   2.916   4.913   5.926  0.1932 -0.2493 -0.4400
  694PNCE   C5B 6245   3.263   4.784   6.132 -0.0801 -0.2669 -0.0009
  694PNCE   C6B 6246   3.475   4.403   6.349  0.2050  0.2369 -0.0279
  695PNCE   AM1 6247  14.307  13.816   4.671  0.2358  0.4676 -0.0107
  695PNCE   AM2 6248  14.103  13.939   4.596 -0.1872  0.2789  0.3258
  695PNCE   T1A 6249  14.319  13.731   5.089 -0.2224  0.3235  0.0396
  695PNCE   C2A 6250  14.540  13.797   5.490 -0.0010 -0.0619 -0.0923
  695PNCE   C3A 6251  14.656  13.843   5.980 -0.1625  0.0650  0.2478
  695PNCE   C1B 6252  13.957  14.115   5.036  0.0458  0.5377  0.1755
  695PNCE   C2B 6253  13.859  14.347   5.372  0.2278 -0.0604 -0.5015
  695PNCE   C3B 6254  13.683  14.392   5.828  0.0495 -0.0263  0.1897
  695PNCE   D4B 6255  13.722  14.167   6.136  0.0196 -0.3067  0.0814
  695PNCE   C5B 6256  13.694  13.747   6.132 -0.0666  0.0426  0.0282
  695PNCE   C6B 6257  13.884  13.381   6.007 -0.0435 -0.2283  0.1268
  696PNCE   AM1 6258  14.541  12.146   4.208  0.0479  0.0229  0.0685
  696PNCE   AM2 6259  14.227  12.068   4.280 -0.1895 -0.0180 -0.2488
  696PNCE   T1A 6260  14.483  12.235   4.612 -0.2098 -0.4417 -0.2159
  696PNCE   C2A 6261  14.083  12.165   4.973 -0.2660 -0.2365  0.4469
  696PNCE   C3A 6262  13.844  12.410   5.166  0.0369  0.1553  0.1026
  696PNCE   C1B 6263  14.408  11.539   4.352 -0.1066  0.1871  0.0475
  696PNCE   C2B 6264  14.509  11.251   4.725 -0.0580 -0.1267  0.0921
  696PNCE   C3B 6265  14.811  11.221   5.030 -0.2635 -0.2250  0.0364
  696PNCE   D4B 6266  14.944  11.193   5.494 -0.1842  0.1489 -0.2022
  696PNCE   C5B 6267  15.108  10.930   5.789 -0.0794 -0.3498 -0.0531
  696PNCE   C6B 6268  15.594  10.817   5.966 -0.1928  0.0750 -0.0709
  697PNCE   AM1 6269   9.569   2.835   4.717 -0.1154  0.0060 -0.1896
  697PNCE   AM2 6270   9.586   3.190   4.684  0.0162 -0.1357  0.2309
  697PNCE   T1A 6271   9.529   2.736   5.149  0.2415 -0.2711 -0.1896
  697PNCE   C2A 6272   9.404   2.514   5.503 -0.0657  0.0259 -0.4029
  697PNCE   C3A 6273   9.166   2.558   5.837 -0.2472  0.0659 -0.2852
  697PNCE   C1B 6274   9.554   3.339   5.133  0.1492  0.1278 -0.1942
  697PNCE   C2B 6275   9.246   3.377   5.541  0.1087 -0.0109  0.1119
  697PNCE   C3B 6276   9.250   3.440   5.942 -0.0288 -0.0440 -0.3121
  697PNCE   D4B 6277   9.141   3.251   6.297  0.1429 -0.0349  0.1439
  697PNCE   C5B 6278   9.335   3.182   6.676 -0.0717 -0.0395  0.4210
  697PNCE   C6B 6279   9.603   2.948   6.715 -0.1129  0.2631 -0.2395
  698PNCE   AM1 6280   8.587   8.915   4.746  0.1601  0.2550 -0.0879
  698PNCE   AM2 6281   8.521   8.631   4.941  0.0053 -0.0462 -0.2356
  698PNCE   T1A 6282   8.515   9.101   5.160 -0.1787 -0.3507 -0.1247
  698PNCE   C2A 6283   8.475   9.325   5.594 -0.1852  0.0230  0.3677
  698PNCE   C3A 6284   8.522   9.415   5.980 -0.1897  0.1007 -0.0767
  698PNCE   C1B 6285   8.492   8.653   5.358  0.1617  0.2127  0.0681
  698PNCE   C2B 6286   8.443   8.833   5.711  0.2343 -0.3272 -0.0130
  698PNCE   C3B 6287   8.600   8.898   6.139 -0.1565  0.4612  0.1174
  698PNCE   D4B 6288   8.572   8.711   6.533 -0.0915 -0.0449  0.0412
  698PNCE   C5B 6289   8.291   8.677   6.845 -0.1711  0.1381 -0.1363
  698PNCE   C6B 6290   8.375   8.658   7.274 -0.5900  0.2045  0.1547
  699XCA    COO 6291   2.492  10.215   9.017  0.1578  0.0069  0.1626
  699XCA     C1 6292   2.239  10.205   8.639  0.1719 -0.1585  0.0473
  699XCA     C2 6293   2.279  10.003   8.249  0.0094 -0.1119  0.1699
  699XCA     C3 6294   2.048   9.573   8.102 -0.0313  0.0275  0.3548
  699XCA     C4 6295   2.030   9.143   7.928 -0.1020 -0.1254 -0.0337
  699XCA     C5 6296   2.200   8.844   7.919  0.1930  0.0507 -0.2525
  699XCA     C6 6297   2.303   8.622   7.556  0.1655 -0.3117  0.0424
  700XCA    COO 6298  14.672   3.865   5.146  0.0326 -0.1158 -0.2674
  700XCA     C1 6299  14.754   4.158   5.436  0.0558 -0.4475 -0.0171
  700XCA     C2 6300  14.656   4.358   5.841 -0.4562 -0.2507 -0.2887
  700XCA     C3 6301  14.482   4.261   6.210 -0.0582 -0.1440  0.1583
  700XCA     C4 6302  14.564   4.560   6.475  0.0075 -0.0741 -0.1199
  700XCA     C5 6303  14.396   5.008   6.727 -0.1930 -0.0405 -0.1848
  700XCA     C6 6304  14.841   5.270   6.920  0.0954  0.0283 -0.0407
  701PNCE   AM1 6305  13.229   7.336   4.638 -0.4476 -0.0473 -0.2318
  701PNCE   AM2 6306  13.429   7.131   4.825  0.1568  0.0469 -0.0082
  701PNCE   T1A 6307  13.164   7.432   5.075  0.0204 -0.2401  0.0526
  701PNCE   C2A 6308  13.178   7.275   5.383  0.2614 -0.0824 -0.0879
  701PNCE   C3A 6309  12.933   7.200   5.533  0.1595 -0.3213  0.2213
  701PNCE   C1B 6310  13.588   6.924   5.238 -0.1835 -0.0609  0.1006
  701PNCE   C2B 6311  13.540   6.975   5.735 -0.1020  0.0528 -0.2979
  701PNCE   C3B 6312  13.660   6.818   6.207  0.2111 -0.1341 -0.1451
  701PNCE   D4B 6313  13.657   6.544   6.384  0.0212  0.1853 -0.1054
  701PNCE   C5B 6314  13.806   6.165   6.177  0.2332 -0.1708  0.2347
  701PNCE   C6B 6315  13.712   5.976   5.872  0.1751  0.3438 -0.0240
  702PNCE   AM1 6316   4.112   5.269   5.178 -0.0189 -0.0650 -0.0283
  702PNCE   AM2 6317   4.417   5.315   5.342  0.0628 -0.0115  0.1879
  702PNCE   T1A 6318   3.832   5.281   5.590 -0.1068 -0.2570 -0.0916
  702PNCE   C2A 6319   3.814   4.910   5.840  0.4062 -0.1086 -0.0768
  702PNCE   C3A 6320   3.793   4.495   5.895 -0.0971 -0.1383  0.2615
  702PNCE   C1B 6321   4.434   5.115   5.764 -0.0563 -0.0506 -0.3157
  702PNCE   C2B 6322   4.347   4.855   6.192 -0.0404 -0.3031 -0.0923
  702PNCE   C3B 6323   4.024   4.692   6.278  0.0124  0.1626  0.0441
  702PNCE   D4B 6324   3.805   4.858   6.512  0.0576  0.2049  0.1415
  702PNCE   C5B 6325   3.649   4.637   6.880 -0.2555 -0.0312  0.0375
  702PNCE   C6B 6326   3.435   4.615   7.168 -0.1157 -0.1643 -0.2009
  703CHOL   ROH 6327  11.963  11.174   6.802 -0.4208 -0.0733  0.3167
  703CHOL    R1 6328  11.810  11.362   6.655 -0.3227 -0.0921  0.1890
  703CHOL    R2 6329  11.884  11.450   6.404 -0.1228 -0.0805  0.2517
  703CHOL    R3 6330  11.634  11.367   6.337 -0.0575 -0.1111  0.0384
  703CHOL    R4 6331  11.703  11.569   6.135  0.0623 -0.0430  0.1416
  703CHOL    R5 6332  11.524  11.566   6.260 -0.0357 -0.1096  0.0064
  703CHOL    C1 6333  11.362  11.560   5.915  0.2315 -0.0498 -0.1227
  703CHOL    C2 6334  11.092  11.629   5.646  0.0811  0.1137 -0.0022
  704PNCE   AM1 6335   5.363  12.428   5.011  0.4348 -0.2631  0.2676
  704PNCE   AM2 6336   5.016  12.534   4.986  0.3039 -0.1327  0.0195
  704PNCE   T1A 6337   5.686  12.526   5.272  0.0816 -0.2238 -0.1621
  704PNCE   C2A 6338   6.074  12.648   5.450  0.1707  0.0615  0.0177
  704PNCE   C3A 6339   6.536  12.671   5.186 -0.1563 -0.2807 -0.0275
  704PNCE   C1B 6340   5.041  12.755   5.346 -0.1313 -0.4376  0.1145
  704PNCE   C2B 6341   5.255  12.932   5.689  0.1539 -0.1198  0.1638
  704PNCE   C3B 6342   5.337  12.774   6.129  0.1534 -0.5280 -0.0760
  704PNCE   D4B 6343   5.304  12.675   6.513 -0.1042  0.0725 -0.1184
  704PNCE   C5B 6344   5.652  12.784   6.777 -0.3209 -0.0525 -0.2222
  704PNCE   C6B 6345   6.066  13.073   7.013  0.0795 -0.2592 -0.2421
  705PNCE   AM1 6346   5.648  15.017   4.868 -0.1127 -0.3375 -0.0401
  705PNCE   AM2 6347   5.990  15.145   4.783  0.0628 -0.0024 -0.1069
  705PNCE   T1A 6348   5.463  14.982   5.275 -0.0358 -0.3765 -0.0462
  705PNCE   C2A 6349   5.384  15.068   5.715 -0.2832  0.0142 -0.1658
  705PNCE   C3A 6350   5.102  15.070   6.084  0.3464  0.0514 -0.0080
  705PNCE   C1B 6351   6.312  15.480   4.995 -0.1134  0.1888  0.1760
  705PNCE   C2B 6352   6.444  15.614   5.370 -0.0217 -0.0358  0.1691
  705PNCE   C3B 6353   6.770  15.760   5.595 -0.0183  0.1303  0.3227
  705PNCE   D4B 6354   6.824  16.211   5.742  0.2085  0.1648 -0.2358
  705PNCE   C5B 6355   7.217  16.375   5.635 -0.0933 -0.0267  0.0237
  705PNCE   C6B 6356   7.632  16.339   5.428  0.1185  0.1598 -0.1093
  706CHOL   ROH 6357   0.096   8.132   8.094 -0.0740 -0.0466  0.0154
  706CHOL    R1 6358  -0.104   8.119   7.894 -0.0973 -0.0326  0.0388
  706CHOL    R2 6359  -0.365   8.198   7.940 -0.0700  0.0389  0.0521
  706CHOL    R3 6360  -0.321   8.356   7.723 -0.0581 -0.0102  0.0178
  706CHOL    R4 6361  -0.613   8.337   7.743 -0.0698  0.2182  0.1748
  706CHOL    R5 6362  -0.492   8.292   7.568 -0.1935  0.1088  0.1113
  706CHOL    C1 6363  -0.717   8.565   7.425 -0.0586  0.2765  0.2140
  706CHOL    C2 6364  -0.775   8.878   7.113 -0.0472 -0.0501 -0.1291
  707XCA    COO 6365  14.109   8.454   5.463  0.1125  0.2493 -0.0596
  707XCA     C1 6366  13.857   8.334   5.870  0.0552 -0.0495  0.0310
  707XCA     C2 6367  13.643   8.318   6.234 -0.8175  0.1029  0.1949
  707XCA     C3 6368  13.484   8.366   6.666  0.2239 -0.1330 -0.0190
  707XCA     C4 6369  13.079   8.400   6.924 -0.1274  0.0015 -0.0713
  707XCA     C5 6370  12.821   8.619   7.261  0.1669 -0.0473 -0.2527
  707XCA     C6 6371  12.443   8.662   7.399 -0.3099  0.1674  0.2287
  708XCA    COO 6372   6.713   9.391   5.298  0.4452 -0.0265 -0.1580
  708XCA     C1 6373   7.080   9.339   5.602 -0.3264 -0.1748 -0.2093
  708XCA     C2 6374   7.170   9.394   6.070  0.0850  0.0884  0.2739
  708XCA     C3 6375   7.355   9.281   6.409 -0.1064  0.1931  0.2063
  708XCA     C4 6376   7.275   8.992   6.853 -0.1942 -0.1480 -0.2610
  708XCA     C5 6377   7.451   8.800   7.179 -0.0779 -0.1210 -0.0421
  708XCA     C6 6378   7.576   8.403   7.387  0.0645 -0.0728 -0.1675
  709CHOL   ROH 6379   4.125   7.201   5.724 -0.0100 -0.3647  0.1681
  709CHOL    R1 6380   4.125   7.237   6.005  0.0489 -0.2073  0.1480
  709CHOL    R2 6381   4.356   7.223   6.157  0.0814 -0.0885  0.1004
  709CHOL    R3 6382   4.276   7.469   6.242  0.0683 -0.0523 -0.0110
  709CHOL    R4 6383   4.435   7.361   6.464 -0.2450 -0.1167  0.2021
  709CHOL    R5 6384   4.232   7.439   6.476 -0.2390 -0.0337 -0.0579
  709CHOL    C1 6385   4.406   7.672   6.722 -0.4474 -0.0990  0.1566
  709CHOL    C2 6386   4.337   7.772   7.106  0.0702 -0.0497  0.0709
  710CHOL   ROH 6387  14.732  15.765   7.718 -0.2553 -0.1724 -0.0089
  710CHOL    R1 6388  14.704  15.652   7.460 -0.1247 -0.1351 -0.0399
  710CHOL    R2 6389  14.565  15.778   7.258 -0.1648 -0.1816 -0.0426
  710CHOL    R3 6390  14.797  15.743   7.120 -0.1096  0.0019  0.0010
  710CHOL    R4 6391  14.595  15.799   6.914 -0.0691  0.0264 -0.0234
  710CHOL    R5 6392  14.730  15.628   6.921  0.0042  0.0858 -0.0839
  710CHOL    C1 6393  14.830  15.779   6.585  0.0385  0.3198  0.0287
  710CHOL    C2 6394  14.865  16.015   6.233 -0.1393 -0.0337 -0.1631
  711CHOL   ROH 6395  11.732   1.093   8.517  0.2753 -0.0701 -0.0901
  711CHOL    R1 6396  11.820   1.023   8.257  0.1523  0.0566 -0.1655
  711CHOL    R2 6397  11.646   0.996   8.044  0.0363  0.0210 -0.0596
  711CHOL    R3 6398  11.813   1.175   7.926 -0.1397  0.1485 -0.1224
  711CHOL    R4 6399  11.703   1.019   7.704  0.2766 -0.2994 -0.0468
  711CHOL    R5 6400  11.914   1.053   7.747  0.2016  0.0785  0.1000
  711CHOL    C1 6401  11.893   1.201   7.396  0.2514 -0.3662 -0.0983
  711CHOL    C2 6402  12.017   1.094   7.028  0.0586 -0.1517 -0.0211
  712CHOL   ROH 6403   9.270   6.776   8.928  0.1534 -0.5216  0.2093
  712CHOL    R1 6404   9.414   6.770   8.685  0.1509 -0.3182  0.2031
  712CHOL    R2 6405   9.524   6.538   8.582  0.0893 -0.2408 -0.0212
  712CHOL    R3 6406   9.381   6.606   8.361  0.1137  0.0088  0.0346
  712CHOL    R4 6407   9.653   6.557   8.263 -0.0135 -0.6230 -0.0926
  712CHOL    R5 6408   9.534   6.737   8.231  0.3515 -0.3537 -0.0796
  712CHOL    C1 6409   9.595   6.633   7.869 -0.0506 -0.6112 -0.0818
  712CHOL    C2 6410   9.930   6.572   7.642  0.0166  0.2342 -0.5566
  713XCA    COO 6411  15.069   3.266   8.574 -0.1758 -0.3149 -0.2183
  713XCA     C1 6412  15.206   3.279   8.235 -0.1700  0.1704  0.2454
  713XCA     C2 6413  15.245   3.151   7.736 -0.3954 -0.2949  0.0439
  713XCA     C3 6414  15.264   2.714   7.514  0.0554  0.0376 -0.2112
  713XCA     C4 6415  15.325   2.331   7.469  0.0469 -0.2078  0.0009
  713XCA     C5 6416  15.666   2.069   7.672 -0.2201 -0.0267  0.2775
  713XCA     C6 6417  16.056   1.989   7.568  0.3133  0.1898  0.1491
  714CHOL   ROH 6418  13.062   8.925   5.306 -0.2529  0.0851 -0.0896
  714CHOL    R1 6419  13.224   8.933   5.539 -0.1074  0.0226 -0.1881
  714CHOL    R2 6420  13.266   9.165   5.683 -0.0464 -0.0264 -0.1345
  714CHOL    R3 6421  13.177   9.013   5.890  0.1066 -0.1084 -0.1266
  714CHOL    R4 6422  13.302   9.246   6.017 -0.2892  0.1328 -0.1437
  714CHOL    R5 6423  13.347   9.037   6.058  0.0186  0.2020 -0.0698
  714CHOL    C1 6424  13.240   9.151   6.406 -0.2870  0.1485 -0.1417
  714CHOL    C2 6425  13.236   9.553   6.462 -0.2241 -0.0005 -0.2785
  715CHOL   ROH 6426  11.880   4.874   8.225  0.0928 -0.0143  0.0880
  715CHOL    R1 6427  11.901   4.977   7.962  0.0186 -0.1143  0.0419
  715CHOL    R2 6428  11.969   5.240   7.911 -0.1198 -0.0990 -0.0752
  715CHOL    R3 6429  12.161   5.126   7.756 -0.0733 -0.0667 -0.0407
  715CHOL    R4 6430  12.125   5.395   7.644 -0.2483 -0.1438 -0.1771
  715CHOL    R5 6431  12.115   5.206   7.535 -0.1520 -0.2085 -0.0771
  715CHOL    C1 6432  12.397   5.377   7.344 -0.2795 -0.1396 -0.2042
  715CHOL    C2 6433  12.427   5.681   7.039 -0.1396 -0.0018 -0.1358
  716PNCE   AM1 6434  13.599   8.298   5.057 -0.0627  0.1699 -0.0423
  716PNCE   AM2 6435  13.847   8.148   4.907 -0.2564 -0.2704  0.0922
  716PNCE   T1A 6436  13.615   8.171   5.450 -0.1817 -0.1139  0.1027
  716PNCE   C2A 6437  13.405   8.067   5.865  0.2553  0.1273 -0.1645
  716PNCE   C3A 6438  13.121   8.186   6.241 -0.1324  0.0198  0.2749
  716PNCE   C1B 6439  13.962   7.879   5.254 -0.3449 -0.0746 -0.1341
  716PNCE   C2B 6440  13.884   7.845   5.731 -0.0359 -0.2175  0.5796
  716PNCE   C3B 6441  13.807   7.851   6.178 -0.1922  0.0488 -0.0553
  716PNCE   D4B 6442  13.646   7.862   6.608  0.1260  0.0684  0.3108
  716PNCE   C5B 6443  13.905   8.105   6.937  0.1446  0.0417  0.0935
  716PNCE   C6B 6444  14.042   8.542   7.054  0.0052 -0.0295 -0.0352
  717CHOL   ROH 6445  15.303  11.794   8.379  0.0668 -0.3301 -0.0590
  717CHOL    R1 6446  15.504  11.729   8.189  0.0537 -0.2075 -0.1122
  717CHOL    R2 6447  15.447  11.606   7.948  0.0238  0.0748 -0.2388
  717CHOL    R3 6448  15.581  11.819   7.845  0.1228  0.1256 -0.0171
  717CHOL    R4 6449  15.577  11.622   7.629  0.2650  0.2202 -0.1379
  717CHOL    R5 6450  15.753  11.722   7.710  0.2229  0.1684  0.0597
  717CHOL    C1 6451  15.779  11.831   7.346  0.4982  0.3525  0.1290
  717CHOL    C2 6452  15.577  11.795   6.917  0.0555  0.2308 -0.0861
  718PNCE   AM1 6453  10.620   1.503   5.009 -0.0806  0.1561  0.2679
  718PNCE   AM2 6454  10.523   1.775   4.894  0.1602  0.0519 -0.0657
  718PNCE   T1A 6455  10.823   1.219   5.311 -0.0876 -0.3268 -0.0023
  718PNCE   C2A 6456  10.960   0.810   5.523  0.0258  0.4169 -0.0066
  718PNCE   C3A 6457  10.831   0.450   5.869  0.4492  0.1386  0.1551
  718PNCE   C1B 6458  10.308   1.810   5.278  0.3074  0.3176  0.2530
  718PNCE   C2B 6459  10.287   1.952   5.737  0.2590  0.0692  0.0228
  718PNCE   C3B 6460  10.070   2.148   5.955 -0.3667  0.2510  0.1281
  718PNCE   D4B 6461   9.625   2.278   5.992 -0.0496 -0.1742 -0.1864
  718PNCE   C5B 6462   9.468   2.108   6.307 -0.1426 -0.0810 -0.1031
  718PNCE   C6B 6463   9.279   1.976   6.713  0.0116  0.1669  0.3577
  719PNCE   AM1 6464  13.087  15.507   4.487  0.2012 -0.0822 -0.2749
  719PNCE   AM2 6465  13.376  15.353   4.798  0.1119 -0.0538  0.1190
  719PNCE   T1A 6466  12.724  15.504   4.716 -0.1555  0.1584 -0.2981
  719PNCE   C2A 6467  12.518  15.515   5.242 -0.0578 -0.0340 -0.1463
  719PNCE   C3A 6468  12.425  15.475   5.695  0.3736 -0.2198  0.1237
  719PNCE   C1B 6469  13.110  15.211   5.119  0.0448  0.0958  0.0223
  719PNCE   C2B 6470  12.743  15.017   5.188  0.3329 -0.0641  0.2237
  719PNCE   C3B 6471  12.312  14.874   5.023 -0.4672 -0.0461 -0.0062
  719PNCE   D4B 6472  12.035  14.556   5.165 -0.1903 -0.4632  0.0405
  719PNCE   C5B 6473  11.992  14.429   5.572 -0.1116  0.0968  0.1955
  719PNCE   C6B 6474  11.644  14.427   5.887  0.0345 -0.0141  0.1539
  720PNCE   AM1 6475   4.820  15.892   4.491 -0.0047 -0.1244  0.0197
  720PNCE   AM2 6476   4.802  15.690   4.705 -0.0052 -0.1501  0.1142
  720PNCE   T1A 6477   4.981  16.188   4.789  0.1043  0.0314 -0.2767
  720PNCE   C2A 6478   4.788  16.359   5.157  0.0800 -0.0969  0.0458
  720PNCE   C3A 6479   4.747  16.444   5.587 -0.1171  0.1030 -0.1838
  720PNCE   C1B 6480   4.725  15.857   5.108  0.0051  0.1884 -0.1013
  720PNCE   C2B 6481   4.805  15.934   5.617 -0.0378  0.3002 -0.0451
  720PNCE   C3B 6482   4.737  16.082   6.002  0.0811  0.1824  0.0893
  720PNCE   D4B 6483   4.568  16.548   6.116  0.1500  0.1584 -0.2517
  720PNCE   C5B 6484   4.263  16.655   6.457 -0.1015 -0.0973  0.0062
  720PNCE   C6B 6485   4.275  16.765   6.923 -0.2296 -0.0263  0.1513
  721XCA    COO 6486  15.678   4.728   8.947 -0.0569  0.0254 -0.0286
  721XCA     C1 6487  15.475   4.869   8.554  0.1601  0.2506 -0.1669
  721XCA     C2 6488  15.319   5.121   8.173 -0.2502 -0.2517  0.0175
  721XCA     C3 6489  15.127   5.192   7.842 -0.1068  0.4803 -0.0158
  721XCA     C4 6490  14.696   5.193   7.754 -0.0554 -0.2363 -0.3253
  721XCA     C5 6491  14.295   5.020   7.686 -0.1225 -0.2846  0.0456
  721XCA     C6 6492  13.873   5.128   7.670 -0.1885  0.2683 -0.0468
  722PNCE   AM1 6493  12.904   5.858   5.142 -0.0817 -0.0857 -0.1493
  722PNCE   AM2 6494  13.005   5.618   5.301 -0.1079 -0.0499 -0.0912
  722PNCE   T1A 6495  12.861   6.214   5.427  0.0094 -0.1824  0.2590
  722PNCE   C2A 6496  12.685   6.418   5.805  0.2007  0.0385 -0.1941
  722PNCE   C3A 6497  12.658   6.653   6.091 -0.2042 -0.1286  0.0603
  722PNCE   C1B 6498  12.847   5.314   5.681  0.1222 -0.4110  0.0137
  722PNCE   C2B 6499  12.810   5.148   6.039 -0.0289 -0.1370 -0.1535
  722PNCE   C3B 6500  12.527   4.948   6.344 -0.4362  0.1209 -0.0022
  722PNCE   D4B 6501  12.372   4.642   6.676 -0.1227 -0.1189  0.4652
  722PNCE   C5B 6502  12.412   4.192   6.744 -0.1727 -0.0587 -0.0777
  722PNCE   C6B 6503  12.073   3.888   6.713 -0.1699 -0.1919 -0.0414
  723PNCE   AM1 6504   3.462  12.767   4.477  0.2131  0.1407 -0.1336
  723PNCE   AM2 6505   3.585  12.366   4.602 -0.0106 -0.0790  0.1404
  723PNCE   T1A 6506   3.193  12.690   4.823  0.2244  0.1455  0.1547
  723PNCE   C2A 6507   2.832  12.682   5.168 -0.0240 -0.0744 -0.0728
  723PNCE   C3A 6508   2.832  12.874   5.682 -0.0149 -0.0168  0.0083
  723PNCE   C1B 6509   3.810  12.187   4.952  0.0336  0.0926  0.2125
  723PNCE   C2B 6510   4.182  12.170   5.304  0.2111 -0.0523 -0.1722
  723PNCE   C3B 6511   4.473  12.145   5.658 -0.1974  0.2807  0.2002
  723PNCE   D4B 6512   4.584  12.022   6.105 -0.2457 -0.0820  0.1071
  723PNCE   C5B 6513   4.530  11.991   6.600 -0.1848  0.0191 -0.0073
  723PNCE   C6B 6514   4.597  11.663   6.838 -0.0949  0.0681  0.0361
  724PNCE   AM1 6515  10.679   2.217   4.569  0.2381  0.2327 -0.2345
  724PNCE   AM2 6516  10.696   1.940   4.385  0.3147 -0.0048 -0.0120
  724PNCE   T1A 6517  10.834   2.470   4.970 -0.3831 -0.0211 -0.1327
  724PNCE   C2A 6518  10.815   2.938   5.090  0.1669 -0.2481  0.2370
  724PNCE   C3A 6519  11.041   3.382   5.135 -0.0840 -0.0671  0.4739
  724PNCE   C1B 6520  10.988   1.875   4.675  0.1483  0.0962 -0.1608
  724PNCE   C2B 6521  11.134   1.586   4.983 -0.0125 -0.0879  0.1773
  724PNCE   C3B 6522  11.184   1.630   5.331 -0.0200 -0.4557  0.1542
  724PNCE   D4B 6523  11.174   1.813   5.708  0.1346 -0.0613  0.0180
  724PNCE   C5B 6524  10.823   2.057   5.854  0.0129 -0.0592  0.1117
  724PNCE   C6B 6525  10.562   2.391   5.990  0.1590  0.0368 -0.4262
  725PNCE   AM1 6526   4.482   3.632   4.750  0.1126  0.0694 -0.0407
  725PNCE   AM2 6527   4.321   3.303   4.891  0.3391  0.1382 -0.0575
  725PNCE   T1A 6528   4.844   3.426   4.984 -0.2009 -0.5094 -0.0750
  725PNCE   C2A 6529   4.961   3.339   5.356  0.0402  0.3643  0.2666
  725PNCE   C3A 6530   5.262   3.058   5.495  0.3546 -0.1985  0.0248
  725PNCE   C1B 6531   4.061   3.494   5.069  0.0926  0.2930  0.0119
  725PNCE   C2B 6532   3.943   3.594   5.566 -0.0563 -0.1436  0.0614
  725PNCE   C3B 6533   4.352   3.659   5.845 -0.4795 -0.3092  0.2574
  725PNCE   D4B 6534   4.402   3.379   6.097 -0.2046 -0.0645 -0.1676
  725PNCE   C5B 6535   4.236   3.340   6.564 -0.1738 -0.1969  0.0919
  725PNCE   C6B 6536   4.072   3.721   6.820  0.1140 -0.2937 -0.0014
  726PNCE   AM1 6537   9.918   1.205   4.389 -0.2654 -0.4191 -0.1871
  726PNCE   AM2 6538   9.678   1.499   4.472  0.0160  0.5626 -0.0785
  726PNCE   T1A 6539   9.851   0.737   4.533 -0.0819  0.0696 -0.0994
  726PNCE   C2A 6540  10.034   0.306   4.709 -0.3327 -0.0915 -0.0595
  726PNCE   C3A 6541  10.316   0.042   4.947 -0.1625 -0.0793 -0.0395
  726PNCE   C1B 6542   9.682   1.280   4.812  0.0427 -0.2456  0.1883
  726PNCE   C2B 6543   9.732   1.021   5.146  0.1145 -0.2151  0.0315
  726PNCE   C3B 6544   9.554   0.750   5.472  0.0548  0.1546  0.0562
  726PNCE   D4B 6545   9.208   0.701   5.751 -0.1716  0.2698  0.3274
  726PNCE   C5B 6546   9.082   0.572   6.154  0.0747  0.0415 -0.1563
  726PNCE   C6B 6547   8.899   0.992   6.408  0.0082 -0.0150  0.1217
  727CHOL   ROH 6548   2.434   1.800   8.581 -0.1245 -0.1576 -0.0231
  727CHOL    R1 6549   2.524   1.702   8.331 -0.2067 -0.1518 -0.0558
  727CHOL    R2 6550   2.353   1.657   8.118 -0.2393  0.1164 -0.0925
  727CHOL    R3 6551   2.527   1.819   7.986 -0.0539 -0.0108 -0.0069
  727CHOL    R4 6552   2.421   1.641   7.779 -0.1944  0.1690 -0.0856
  727CHOL    R5 6553   2.631   1.677   7.825 -0.1675 -0.0564 -0.0377
  727CHOL    C1 6554   2.625   1.784   7.459  0.0058  0.0803 -0.0012
  727CHOL    C2 6555   2.496   1.787   7.060 -0.1401 -0.0870 -0.0425
  728XCA    COO 6556   7.745   6.067   8.640 -0.0138 -0.0222  0.1707
  728XCA     C1 6557   7.761   6.036   8.125 -0.1754 -0.3396  0.0845
  728XCA     C2 6558   7.769   5.939   7.641  0.0653  0.1482  0.0436
  728XCA     C3 6559   7.862   5.875   7.289 -0.0560  0.0459 -0.1634
  728XCA     C4 6560   7.650   5.901   6.944 -0.0280 -0.1239 -0.0993
  728XCA     C5 6561   7.335   5.660   6.781  0.1144  0.3022 -0.0209
  728XCA     C6 6562   7.042   5.359   6.892  0.2406 -0.1817 -0.0762
  729PNCE   AM1 6563   3.630  14.515   5.147  0.0186 -0.1408  0.0493
  729PNCE   AM2 6564   3.724  14.872   5.119 -0.0031 -0.1446 -0.0937
  729PNCE   T1A 6565   3.249  14.377   5.442  0.0860 -0.0382  0.2634
  729PNCE   C2A 6566   2.869  14.128   5.600 -0.0332 -0.0428  0.2497
  729PNCE   C3A 6567   2.718  14.123   6.024 -0.0197  0.0735  0.2465
  729PNCE   C1B 6568   3.964  15.100   5.380 -0.1584  0.0019 -0.0856
  729PNCE   C2B 6569   4.017  15.306   5.763  0.2692 -0.1587 -0.2442
  729PNCE   C3B 6570   4.010  15.258   6.137 -0.1167 -0.0099  0.0141
  729PNCE   D4B 6571   3.845  15.636   6.531  0.1576 -0.1268 -0.0705
  729PNCE   C5B 6572   4.110  16.074   6.661 -0.3398  0.1008  0.1297
  729PNCE   C6B 6573   4.314  16.244   7.026  0.3481 -0.0511 -0.0871
  730XCA    COO 6574   9.455   0.381   8.396 -0.5198  0.1306  0.0016
  730XCA     C1 6575   9.572   0.453   7.906 -0.0374  0.3281 -0.0699
  730XCA     C2 6576   9.620   0.634   7.575  0.0529  0.0222  0.0549
  730XCA     C3 6577   9.707   0.791   7.177 -0.0001 -0.0341  0.0729
  730XCA     C4 6578   9.645   0.874   6.714  0.0144  0.1415  0.0832
  730XCA     C5 6579   9.561   1.295   6.563 -0.0037  0.2671 -0.0910
  730XCA     C6 6580   9.218   1.505   6.524  0.0090  0.2066  0.0738
  731PNCE   AM1 6581  14.027  11.123   4.456 -0.5909 -0.1499  0.0885
  731PNCE   AM2 6582  13.857  11.164   4.250  0.0340 -0.1855 -0.1537
  731PNCE   T1A 6583  14.008  11.055   4.906  0.3874  0.1491  0.3390
  731PNCE   C2A 6584  13.902  10.794   5.416  0.3629  0.0127 -0.0688
  731PNCE   C3A 6585  13.566  10.585   5.596 -0.0461 -0.0347 -0.0051
  731PNCE   C1B 6586  13.589  11.264   4.684  0.0782  0.0109  0.0629
  731PNCE   C2B 6587  13.663  11.317   5.123 -0.0409  0.1316  0.3020
  731PNCE   C3B 6588  13.793  11.292   5.520 -0.1491  0.0497  0.1365
  731PNCE   D4B 6589  14.055  10.998   5.812 -0.3977 -0.0913  0.0229
  731PNCE   C5B 6590  14.226  11.147   6.236  0.1062 -0.0415 -0.0160
  731PNCE   C6B 6591  14.446  11.540   6.233  0.0976  0.2283 -0.0638
  732PNCE   AM1 6592  15.115  14.548   4.591  0.2292 -0.1141 -0.4355
  732PNCE   AM2 6593  15.368  14.824   4.648 -0.2830  0.0338  0.3376
  732PNCE   T1A 6594  15.016  14.427   5.029 -0.0512  0.0980 -0.2117
  732PNCE   C2A 6595  14.981  14.676   5.339  0.1710  0.2585  0.2039
  732PNCE   C3A 6596  14.817  14.766   5.723  0.1353  0.2269  0.0098
  732PNCE   C1B 6597  15.335  14.909   5.070 -0.0119 -0.0865 -0.2161
  732PNCE   C2B 6598  15.363  14.874   5.587  0.2142 -0.2881 -0.0205
  732PNCE   C3B 6599  15.254  14.617   5.937  0.2775 -0.0016  0.1282
  732PNCE   D4B 6600  15.102  14.106   5.984 -0.0459 -0.1746 -0.0863
  732PNCE   C5B 6601  15.296  13.826   5.757  0.0457 -0.3327 -0.0221
  732PNCE   C6B 6602  15.390  13.652   5.396 -0.1075 -0.2219  0.2410
  733PNCE   AM1 6603   8.434   4.684   4.418  0.0335 -0.0643  0.1887
  733PNCE   AM2 6604   8.196   4.444   4.324  0.3045  0.1028  0.1248
  733PNCE   T1A 6605   8.698   4.725   4.844  0.1927  0.0093  0.2444
  733PNCE   C2A 6606   8.905   4.497   5.205  0.1239 -0.1847 -0.1661
  733PNCE   C3A 6607   8.725   4.664   5.570  0.0856  0.0927 -0.0477
  733PNCE   C1B 6608   8.319   4.292   4.787 -0.5827 -0.0315 -0.0967
  733PNCE   C2B 6609   8.344   4.425   5.162 -0.0756 -0.0486  0.3139
  733PNCE   C3B 6610   8.155   4.359   5.627 -0.1102 -0.2380 -0.1913
  733PNCE   D4B 6611   7.966   4.546   5.914  0.1768 -0.0358  0.1869
  733PNCE   C5B 6612   7.736   4.251   6.074  0.1946 -0.2741  0.0778
  733PNCE   C6B 6613   7.822   3.795   6.004  0.1209 -0.3520  0.1304
  734CHOL   ROH 6614  13.170  11.588   4.803  0.1508 -0.0534  0.1023
  734CHOL    R1 6615  13.307  11.696   5.026  0.0196  0.1036  0.1076
  734CHOL    R2 6616  13.187  11.727   5.273 -0.0177 -0.0655  0.1094
  734CHOL    R3 6617  13.401  11.583   5.359  0.1694  0.1963  0.0982
  734CHOL    R4 6618  13.339  11.764   5.581 -0.0664  0.1005  0.1153
  734CHOL    R5 6619  13.532  11.740   5.483 -0.0302  0.3562  0.1146
  734CHOL    C1 6620  13.628  11.650   5.841  0.0811  0.4430  0.1083
  734CHOL    C2 6621  13.657  11.472   6.261  0.2575 -0.0289  0.1122
  735CHOL   ROH 6622  12.824  14.931   6.193  0.1683 -0.0620  0.0470
  735CHOL    R1 6623  13.065  15.001   6.323  0.1359 -0.0007  0.0761
  735CHOL    R2 6624  13.125  15.262   6.395  0.0953  0.0297  0.0193
  735CHOL    R3 6625  13.159  15.152   6.641  0.0534  0.0955  0.0538
  735CHOL    R4 6626  13.345  15.378   6.635  0.1216  0.0260 -0.0037
  735CHOL    R5 6627  13.394  15.171   6.683  0.0533  0.0309  0.0602
  735CHOL    C1 6628  13.505  15.342   7.006  0.0975  0.0855  0.0154
  735CHOL    C2 6629  13.702  15.375   7.262 -0.0802  0.2018  0.2784
  736XCA    COO 6630  13.384   9.290   5.226 -0.0910 -0.0990 -0.0156
  736XCA     C1 6631  13.246   9.609   5.534 -0.0062  0.1387 -0.0042
  736XCA     C2 6632  13.017   9.574   5.732 -0.3131  0.0209 -0.1146
  736XCA     C3 6633  12.898   9.380   6.100  0.3653  0.1139  0.2204
  736XCA     C4 6634  12.635   9.261   6.424  0.0582  0.0916 -0.1458
  736XCA     C5 6635  12.412   9.352   6.886 -0.0701 -0.2245 -0.1732
  736XCA     C6 6636  12.297   9.514   7.280  0.0508 -0.2038 -0.1869
  737PNCE   AM1 6637   6.928  15.802   4.464 -0.3713  0.2683 -0.0482
  737PNCE   AM2 6638   7.141  15.995   4.412 -0.0809 -0.0228  0.0030
  737PNCE   T1A 6639   7.221  15.539   4.702 -0.0489  0.0274  0.1502
  737PNCE   C2A 6640   7.455  15.350   5.063  0.0652  0.0130 -0.2718
  737PNCE   C3A 6641   7.508  14.979   5.343  0.0388  0.0466  0.0347
  737PNCE   C1B 6642   7.469  16.041   4.736 -0.2684 -0.1203  0.2022
  737PNCE   C2B 6643   7.453  15.915   5.123  0.1115  0.2279 -0.1558
  737PNCE   C3B 6644   7.249  15.932   5.445 -0.0778  0.4807 -0.2367
  737PNCE   D4B 6645   7.227  15.947   5.910  0.0241 -0.1143  0.5464
  737PNCE   C5B 6646   7.492  15.954   6.257  0.1042  0.2920 -0.0180
  737PNCE   C6B 6647   7.404  15.889   6.667  0.0937  0.0385  0.0936
  738PNCE   AM1 6648   9.293  15.559   3.937 -0.0370  0.1162  0.0868
  738PNCE   AM2 6649   8.983  15.796   4.005  0.0751 -0.0294 -0.0308
  738PNCE   T1A 6650   9.477  15.530   4.296 -0.0072 -0.0455  0.1939
  738PNCE   C2A 6651   9.717  15.753   4.643 -0.1747 -0.6768 -0.1218
  738PNCE   C3A 6652   9.815  15.988   5.113 -0.0226 -0.1925 -0.0452
  738PNCE   C1B 6653   9.083  15.790   4.473 -0.2709  0.2371 -0.0344
  738PNCE   C2B 6654   9.148  15.759   4.890  0.0102  0.1639 -0.2610
  738PNCE   C3B 6655   9.420  15.716   5.218  0.1310  0.2130  0.1694
  738PNCE   D4B 6656   9.631  16.145   5.534 -0.0628 -0.0932 -0.1477
  738PNCE   C5B 6657   9.831  15.979   5.724  0.0562  0.1884 -0.3643
  738PNCE   C6B 6658  10.096  15.682   5.448  0.2356  0.0184  0.0095
  739CHOL   ROH 6659  15.071  11.746   8.007 -0.1467  0.0046  0.0067
  739CHOL    R1 6660  15.145  11.825   7.746 -0.2306  0.0991  0.0101
  739CHOL    R2 6661  15.178  11.646   7.539  0.1639  0.1135  0.0464
  739CHOL    R3 6662  15.000  11.807   7.412 -0.1208 -0.2419 -0.0210
  739CHOL    R4 6663  15.170  11.699   7.198  0.3940  0.3436  0.0737
  739CHOL    R5 6664  15.128  11.910   7.237 -0.1880  0.2184  0.1901
  739CHOL    C1 6665  14.998  11.881   6.880  0.2606  0.1438  0.0263
  739CHOL    C2 6666  14.852  11.937   6.660  0.3510 -0.2374 -0.1393
  740PNCE   AM1 6667  10.192  13.503   4.258 -0.0145 -0.0269  0.1545
  740PNCE   AM2 6668  10.050  13.658   4.512 -0.0363 -0.0448  0.0080
  740PNCE   T1A 6669  10.335  13.276   4.587 -0.0311  0.2949  0.2008
  740PNCE   C2A 6670  10.620  13.254   5.014 -0.0603  0.0277  0.2289
  740PNCE   C3A 6671  10.593  13.311   5.441  0.1520  0.5191 -0.0928
  740PNCE   C1B 6672  10.324  13.988   4.708 -0.1617  0.1758 -0.1001
  740PNCE   C2B 6673  10.328  14.361   5.012  0.2323  0.1230  0.1862
  740PNCE   C3B 6674  10.169  14.659   5.270  0.3210 -0.1229 -0.3023
  740PNCE   D4B 6675   9.970  15.022   5.499  0.3961 -0.1253  0.0125
  740PNCE   C5B 6676   9.929  15.037   5.923 -0.2189 -0.0466  0.0600
  740PNCE   C6B 6677  10.113  15.178   6.265 -0.3128  0.2022  0.1940
  741PNCE   AM1 6678  14.245  13.302   4.450 -0.0420  0.0107  0.1400
  741PNCE   AM2 6679  14.565  13.467   4.463 -0.2987 -0.2175  0.0034
  741PNCE   T1A 6680  14.232  13.226   4.890  0.2300  0.0872 -0.0471
  741PNCE   C2A 6681  14.189  12.951   5.165 -0.0977  0.0375  0.0412
  741PNCE   C3A 6682  13.999  12.707   5.572 -0.3337 -0.1177 -0.0533
  741PNCE   C1B 6683  14.697  13.440   4.830  0.0007 -0.0796  0.0940
  741PNCE   C2B 6684  14.902  13.465   5.253 -0.0320  0.0862 -0.0439
  741PNCE   C3B 6685  14.862  13.439   5.641  0.0588 -0.0168 -0.2610
  741PNCE   D4B 6686  15.071  13.342   6.020 -0.0354 -0.1810 -0.1968
  741PNCE   C5B 6687  14.761  13.254   6.359  0.0062  0.2107  0.0779
  741PNCE   C6B 6688  14.366  13.147   6.472  0.0121 -0.0438 -0.0084
  742CHOL   ROH 6689   2.243   8.537   9.322  0.1745 -0.2380 -0.1978
  742CHOL    R1 6690   2.293   8.509   9.044  0.0590 -0.3318 -0.2108
  742CHOL    R2 6691   2.159   8.327   8.886 -0.2717 -0.1355 -0.1684
  742CHOL    R3 6692   2.104   8.547   8.736  0.0304 -0.0505 -0.1603
  742CHOL    R4 6693   2.130   8.329   8.542 -0.2974 -0.0847 -0.1658
  742CHOL    R5 6694   2.237   8.519   8.539 -0.0245 -0.2358 -0.1707
  742CHOL    C1 6695   2.061   8.536   8.200 -0.0286  0.0247 -0.1568
  742CHOL    C2 6696   1.821   8.357   8.039  0.2142  0.0551  0.1522
  743CHOL   ROH 6697   6.878  13.112   7.983 -0.1966  0.1110  0.0912
  743CHOL    R1 6698   6.964  13.217   7.735 -0.1720 -0.0607  0.0254
  743CHOL    R2 6699   6.795  13.355   7.565 -0.0862  0.0679  0.0449
  743CHOL    R3 6700   6.987  13.546   7.581  0.1288 -0.1316 -0.0886
  743CHOL    R4 6701   6.846  13.603   7.330 -0.1198  0.1276  0.1004
  743CHOL    R5 6702   7.061  13.575   7.355 -0.1114 -0.1016 -0.1671
  743CHOL    C1 6703   7.056  13.928   7.209  0.0625 -0.0250  0.0073
  743CHOL    C2 6704   6.781  13.825   6.917  0.0121 -0.1143 -0.0541
  744XCA    COO 6705   3.095  11.402   4.873  0.0067 -0.0390 -0.2082
  744XCA     C1 6706   2.858  11.747   5.010  0.0371  0.3250 -0.0146
  744XCA     C2 6707   2.743  11.840   5.406  0.0411 -0.3369  0.0501
  744XCA     C3 6708   2.754  11.915   5.836 -0.0527  0.0997  0.1864
  744XCA     C4 6709   2.643  12.035   6.183 -0.2001 -0.2161  0.2138
  744XCA     C5 6710   2.746  12.360   6.467 -0.0276  0.0269  0.1221
  744XCA     C6 6711   2.908  12.728   6.422 -0.0559  0.1496  0.2276
  745PNCE   AM1 6712   8.640   6.828   4.793  0.0992  0.2890 -0.0662
  745PNCE   AM2 6713   8.767   6.527   4.760  0.0587  0.1998 -0.0746
  745PNCE   T1A 6714   8.457   6.585   5.259  0.1163  0.1113 -0.1969
  745PNCE   C2A 6715   8.304   6.398   5.618  0.0320 -0.1730  0.0905
  745PNCE   C3A 6716   7.892   6.225   5.674 -0.1246  0.3365 -0.4034
  745PNCE   C1B 6717   8.999   6.651   5.136  0.0353 -0.0067  0.0898
  745PNCE   C2B 6718   9.144   6.690   5.502  0.0621  0.2872 -0.0594
  745PNCE   C3B 6719   9.195   6.693   5.926 -0.1067 -0.2562 -0.0482
  745PNCE   D4B 6720   9.138   6.957   6.281 -0.0389  0.0003  0.2280
  745PNCE   C5B 6721   9.302   6.939   6.726 -0.1717 -0.2859  0.2196
  745PNCE   C6B 6722   9.464   7.320   7.029  0.0480  0.1523 -0.4127
  746PNCE   AM1 6723  13.948   0.438   4.268  0.0295 -0.0304  0.3193
  746PNCE   AM2 6724  13.665   0.270   4.281  0.2156  0.4368  0.6850
  746PNCE   T1A 6725  14.082   0.714   4.560 -0.3896  0.1544 -0.0943
  746PNCE   C2A 6726  14.187   1.000   4.976 -0.0694  0.1305 -0.0240
  746PNCE   C3A 6727  14.346   1.195   5.336 -0.1616 -0.0486 -0.0988
  746PNCE   C1B 6728  13.709   0.200   4.686 -0.1110  0.2480 -0.0815
  746PNCE   C2B 6729  13.869   0.403   5.003  0.0254 -0.1382 -0.1730
  746PNCE   C3B 6730  14.147   0.631   5.379 -0.0132 -0.1404 -0.0419
  746PNCE   D4B 6731  14.089   0.782   5.838  0.0820 -0.2859  0.2403
  746PNCE   C5B 6732  13.935   0.493   6.210 -0.1243 -0.0951 -0.0705
  746PNCE   C6B 6733  13.658   0.625   6.533  0.1337 -0.3053 -0.1338
  747XCA    COO 6734  12.468   9.135   4.727 -0.0124  0.1913  0.2081
  747XCA     C1 6735  12.331   9.077   5.167  0.0438 -0.0311  0.0104
  747XCA     C2 6736  12.176   9.019   5.542 -0.2118 -0.1855 -0.1794
  747XCA     C3 6737  11.950   8.832   5.734  0.1260 -0.0184 -0.1440
  747XCA     C4 6738  11.966   8.721   6.168  0.0827 -0.0378  0.0224
  747XCA     C5 6739  11.954   8.421   6.625  0.0294 -0.2121  0.0521
  747XCA     C6 6740  11.883   8.053   6.783  0.0157  0.0826  0.2184
  748CHOL   ROH 6741   7.027   7.158   8.633  0.3429 -0.1072  0.0510
  748CHOL    R1 6742   7.020   7.226   8.358  0.1930 -0.0124  0.0779
  748CHOL    R2 6743   7.240   7.325   8.224  0.1194  0.0262 -0.0073
  748CHOL    R3 6744   7.190   7.118   8.055  0.0218  0.0877 -0.0565
  748CHOL    R4 6745   7.296   7.330   7.883  0.2729  0.0302  0.0166
  748CHOL    R5 6746   7.109   7.222   7.855  0.1921  0.1853 -0.0793
  748CHOL    C1 6747   7.282   7.138   7.526  0.2707  0.0903 -0.0155
  748CHOL    C2 6748   7.536   7.157   7.205  0.0073 -0.1413  0.0837
  749PNCE   AM1 6749   1.982   9.772   4.998 -0.0975 -0.0975  0.2016
  749PNCE   AM2 6750   2.233   9.772   5.355  0.1080  0.0321 -0.2220
  749PNCE   T1A 6751   1.715   9.992   5.305 -0.0831  0.2053  0.0595
  749PNCE   C2A 6752   1.566  10.268   5.609  0.3780 -0.0718  0.0553
  749PNCE   C3A 6753   1.291  10.240   5.940 -0.0812 -0.2722 -0.2141
  749PNCE   C1B 6754   2.149   9.462   5.700 -0.0802 -0.3316 -0.0386
  749PNCE   C2B 6755   1.950   9.550   6.134 -0.1977 -0.0190 -0.2196
  749PNCE   C3B 6756   1.718   9.859   6.270  0.1170  0.2049  0.0767
  749PNCE   D4B 6757   1.317   9.993   6.357  0.1134  0.0770  0.0569
  749PNCE   C5B 6758   1.029   9.868   6.594 -0.1008 -0.0001 -0.2684
  749PNCE   C6B 6759   1.082   9.414   6.808  0.0383 -0.0829 -0.1274
  750XCA    COO 6760   7.278   9.421   5.141 -0.2594 -0.0757  0.1402
  750XCA     C1 6761   7.618   9.439   5.454  0.0490  0.3202 -0.1238
  750XCA     C2 6762   7.599   9.556   5.901 -0.2234  0.0468  0.0429
  750XCA     C3 6763   7.804   9.652   6.319 -0.0008  0.0887 -0.0514
  750XCA     C4 6764   8.019   9.954   6.606  0.2328  0.4120  0.0864
  750XCA     C5 6765   8.040  10.267   6.949  0.1594 -0.0119  0.1892
  750XCA     C6 6766   7.856  10.399   7.329 -0.1525 -0.0860 -0.1980
  751XCA    COO 6767  14.416  10.313   4.695 -0.1319 -0.4179 -0.2319
  751XCA     C1 6768  14.206  10.469   5.136  0.2462  0.1136 -0.0695
  751XCA     C2 6769  14.312  10.633   5.583  0.1129 -0.1843 -0.1699
  751XCA     C3 6770  14.585  10.889   5.804 -0.0441 -0.0271  0.0125
  751XCA     C4 6771  14.576  11.267   5.820  0.4098 -0.1396 -0.0083
  751XCA     C5 6772  14.659  11.699   5.820  0.1906 -0.2389 -0.4050
  751XCA     C6 6773  14.712  12.170   5.744  0.0319  0.0459  0.1528
  752PNCE   AM1 6774  11.591   8.789   4.231  0.0143 -0.0990  0.0122
  752PNCE   AM2 6775  11.413   8.533   4.302 -0.0536 -0.2021 -0.3245
  752PNCE   T1A 6776  11.544   8.941   4.575  0.0224 -0.1413  0.0355
  752PNCE   C2A 6777  11.552   9.307   4.780  0.1285 -0.0493 -0.3771
  752PNCE   C3A 6778  11.853   9.511   5.035  0.0104 -0.1864 -0.2328
  752PNCE   C1B 6779  11.632   8.477   4.751 -0.0456  0.1558  0.1234
  752PNCE   C2B 6780  11.465   8.194   5.083 -0.1475  0.0719  0.3446
  752PNCE   C3B 6781  11.726   7.941   5.399  0.1485  0.4518  0.2274
  752PNCE   D4B 6782  11.767   7.860   5.795 -0.0686 -0.1370 -0.4177
  752PNCE   C5B 6783  11.932   7.491   5.845  0.0342 -0.1759  0.0431
  752PNCE   C6B 6784  12.072   7.253   5.531 -0.0357 -0.2165 -0.0746
  753PNCE   AM1 6785  13.835  10.502   4.678 -0.0073 -0.2205 -0.2496
  753PNCE   AM2 6786  13.606  10.793   4.550  0.0295  0.2244 -0.2054
  753PNCE   T1A 6787  13.743  10.293   5.192 -0.2975 -0.0327  0.1400
  753PNCE   C2A 6788  13.953  10.323   5.575  0.0273  0.0977 -0.2284
  753PNCE   C3A 6789  13.788  10.397   6.031 -0.2098 -0.0322  0.1206
  753PNCE   C1B 6790  13.606  10.816   5.074  0.1332  0.0147  0.0508
  753PNCE   C2B 6791  13.416  11.035   5.457 -0.1256 -0.2073  0.0239
  753PNCE   C3B 6792  13.453  11.121   5.912  0.1338  0.0763  0.3335
  753PNCE   D4B 6793  13.128  11.349   6.254 -0.0218 -0.0016  0.2833
  753PNCE   C5B 6794  13.004  11.705   6.410  0.2459 -0.0188 -0.2128
  753PNCE   C6B 6795  13.149  12.037   6.205 -0.2000  0.0748  0.0823
  754XCA    COO 6796  13.621   9.076   8.757 -0.1072  0.2466 -0.3311
  754XCA     C1 6797  13.935   8.776   8.737 -0.0759 -0.0124  0.1974
  754XCA     C2 6798  14.123   8.394   8.543  0.2442  0.1175  0.2485
  754XCA     C3 6799  14.317   8.083   8.292 -0.0338  0.4059  0.0127
  754XCA     C4 6800  14.180   7.739   8.025 -0.0435 -0.0466  0.3752
  754XCA     C5 6801  14.401   7.496   7.799 -0.1116  0.0320  0.4570
  754XCA     C6 6802  14.609   7.606   7.374  0.1690  0.2933 -0.1306
  755PNCE   AM1 6803   9.902   6.301   4.545  0.1213  0.4606  0.1632
  755PNCE   AM2 6804   9.599   6.052   4.589  0.1704 -0.1294  0.1178
  755PNCE   T1A 6805  10.046   6.391   4.980  0.1317 -0.0001  0.0528
  755PNCE   C2A 6806  10.103   6.334   5.421  0.3197 -0.0358  0.3047
  755PNCE   C3A 6807  10.299   5.988   5.688  0.6011  0.0848  0.0534
  755PNCE   C1B 6808   9.659   6.079   5.077  0.2638 -0.1620 -0.0215
  755PNCE   C2B 6809   9.654   5.956   5.485  0.2401 -0.0590 -0.0298
  755PNCE   C3B 6810   9.777   5.767   5.898  0.1778 -0.0251  0.1367
  755PNCE   D4B 6811   9.929   5.674   6.352 -0.0244  0.0340  0.3690
  755PNCE   C5B 6812   9.798   5.913   6.694  0.4116 -0.0456  0.1295
  755PNCE   C6B 6813   9.564   6.116   7.078  0.0678  0.0298  0.0090
  756CHOL   ROH 6814   9.997   1.438   6.231  0.0373  0.1408 -0.1028
  756CHOL    R1 6815  10.173   1.656   6.195 -0.0493  0.2205 -0.0386
  756CHOL    R2 6816  10.142   1.896   6.329  0.0975  0.0225  0.3505
  756CHOL    R3 6817  10.400   1.850   6.403  0.2162 -0.0411 -0.0756
  756CHOL    R4 6818  10.380   2.142   6.378  0.1171  0.0040  0.3551
  756CHOL    R5 6819  10.526   2.013   6.280  0.0107  0.1575 -0.0382
  756CHOL    C1 6820  10.760   2.243   6.476  0.2399 -0.0666 -0.0421
  756CHOL    C2 6821  11.012   2.420   6.369  0.3236  0.1280  0.2706
  757CHOL   ROH 6822   6.629   5.280   7.226  0.0088  0.0919 -0.0382
  757CHOL    R1 6823   6.667   5.561   7.233  0.0681  0.0851 -0.0582
  757CHOL    R2 6824   6.897   5.682   7.138  0.0941  0.0321 -0.0727
  757CHOL    R3 6825   6.722   5.825   6.989  0.1188  0.0549 -0.0785
  757CHOL    R4 6826   6.955   6.000   7.018  0.1124  0.0471 -0.0228
  757CHOL    R5 6827   6.748   6.051   7.066  0.1090  0.0430 -0.0470
  757CHOL    C1 6828   6.823   6.321   6.807  0.1462  0.0774  0.0007
  757CHOL    C2 6829   7.187   6.647   6.780  0.2103  0.1267  0.1037
  758CHOL   ROH 6830  13.384  14.690   8.407  0.1279 -0.0334 -0.0573
  758CHOL    R1 6831  13.329  14.837   8.171  0.0451 -0.0944 -0.0761
  758CHOL    R2 6832  13.527  14.958   8.021 -0.0356  0.1094 -0.0180
  758CHOL    R3 6833  13.418  14.814   7.818  0.1747 -0.0088 -0.0505
  758CHOL    R4 6834  13.528  15.054   7.689 -0.3066  0.2715  0.0254
  758CHOL    R5 6835  13.323  14.979   7.673 -0.1811 -0.1098  0.0524
  758CHOL    C1 6836  13.426  14.975   7.305 -0.2670  0.2549  0.0200
  758CHOL    C2 6837  13.081  15.067   7.090 -0.0568  0.0905  0.3004
  759CHOL   ROH 6838  10.467   4.392   6.441 -0.1658 -0.1592  0.2748
  759CHOL    R1 6839  10.509   4.130   6.342 -0.1543 -0.1447  0.2403
  759CHOL    R2 6840  10.759   4.039   6.265 -0.1719 -0.0792  0.0981
  759CHOL    R3 6841  10.704   3.839   6.440 -0.0250 -0.0996  0.1217
  759CHOL    R4 6842  10.947   3.751   6.301 -0.0923 -0.0441 -0.0333
  759CHOL    R5 6843  10.761   3.639   6.322 -0.0583 -0.0814  0.0750
  759CHOL    C1 6844  11.004   3.395   6.487  0.0920 -0.0428 -0.0877
  759CHOL    C2 6845  11.064   2.951   6.557 -0.3301  0.0792  0.1970
  760CHOL   ROH 6846   8.267   5.795   8.743  0.0734  0.4299 -0.0274
  760CHOL    R1 6847   8.208   5.671   8.496  0.1652  0.2064  0.0629
  760CHOL    R2 6848   8.126   5.812   8.274  0.0116 -0.0223 -0.0211
  760CHOL    R3 6849   8.335   5.686   8.155  0.1163  0.0906  0.0372
  760CHOL    R4 6850   8.180   5.796   7.933  0.1747  0.1117 -0.0041
  760CHOL    R5 6851   8.242   5.589   7.957  0.2391  0.1201 -0.0413
  760CHOL    C1 6852   8.408   5.668   7.623  0.3679  0.2957  0.0604
  760CHOL    C2 6853   8.391   5.433   7.358  0.1235  0.0918 -0.1875
  761CHOL   ROH 6854  14.198   0.460   6.600  0.0670 -0.0316  0.0697
  761CHOL    R1 6855  14.128   0.685   6.757  0.1821  0.0330  0.0294
  761CHOL    R2 6856  14.162   0.945   6.668  0.1599 -0.0017 -0.0845
  761CHOL    R3 6857  13.898   0.966   6.729  0.1962  0.0472  0.0600
  761CHOL    R4 6858  13.987   1.242   6.683  0.2244  0.0310  0.0311
  761CHOL    R5 6859  13.884   1.166   6.860  0.3051  0.0407  0.0813
  761CHOL    C1 6860  13.637   1.436   6.749  0.2960  0.0961  0.2340
  761CHOL    C2 6861  13.674   1.836   6.768  0.2594  0.0657  0.0447
  762PNCE   AM1 6862   1.977  12.003   4.776  0.0792  0.0860  0.2807
  762PNCE   AM2 6863   1.589  12.034   4.584 -0.1244  0.4494 -0.2623
  762PNCE   T1A 6864   1.866  11.812   5.165  0.0094 -0.3056  0.3970
  762PNCE   C2A 6865   1.736  11.861   5.518  0.0360  0.1808 -0.0185
  762PNCE   C3A 6866   1.549  11.935   5.835 -0.2291  0.3026 -0.0708
  762PNCE   C1B 6867   1.443  12.081   5.060 -0.0536 -0.1618 -0.0010
  762PNCE   C2B 6868   1.421  12.445   5.338 -0.2374 -0.1889  0.0915
  762PNCE   C3B 6869   1.498  12.572   5.790 -0.1359  0.3228  0.1263
  762PNCE   D4B 6870   1.289  12.405   6.184 -0.0202  0.0744 -0.1850
  762PNCE   C5B 6871   0.976  12.037   6.146 -0.2983  0.3737 -0.2193
  762PNCE   C6B 6872   0.632  11.728   6.256  0.0319 -0.0818  0.1167
  763PNCE   AM1 6873   2.297   5.445   5.369 -0.0844  0.0125  0.0515
  763PNCE   AM2 6874   2.257   5.142   5.431  0.1250  0.1569  0.0288
  763PNCE   T1A 6875   2.680   5.541   5.626 -0.0033 -0.0828 -0.3405
  763PNCE   C2A 6876   3.100   5.522   5.797 -0.3068  0.1753 -0.0938
  763PNCE   C3A 6877   3.462   5.360   5.888  0.1874  0.4060 -0.0025
  763PNCE   C1B 6878   2.430   5.092   5.746  0.2229  0.0657 -0.0568
  763PNCE   C2B 6879   2.545   5.147   6.244 -0.4528  0.1052  0.2019
  763PNCE   C3B 6880   2.615   5.149   6.626 -0.1584  0.2285 -0.0826
  763PNCE   D4B 6881   2.847   5.376   6.990  0.0026 -0.0437 -0.0269
  763PNCE   C5B 6882   2.712   5.476   7.433  0.1607  0.1834  0.0871
  763PNCE   C6B 6883   2.793   5.169   7.732 -0.2092  0.1161  0.0064
  764CHOL   ROH 6884  13.990   2.092   9.018 -0.0037 -0.0141 -0.1105
  764CHOL    R1 6885  14.087   2.245   8.801 -0.0062  0.0302 -0.0797
  764CHOL    R2 6886  14.347   2.337   8.788  0.0063 -0.0187 -0.0913
  764CHOL    R3 6887  14.345   2.211   8.547 -0.0510  0.0561 -0.1310
  764CHOL    R4 6888  14.552   2.418   8.522  0.1833 -0.1432  0.0045
  764CHOL    R5 6889  14.382   2.387   8.388  0.1858  0.0762 -0.0634
  764CHOL    C1 6890  14.670   2.347   8.141  0.2325 -0.1457  0.0230
  764CHOL    C2 6891  14.983   2.557   7.866  0.0612  0.2763 -0.2131
  765PNCE   AM1 6892   8.770   7.900   5.190  0.0758  0.0299 -0.0856
  765PNCE   AM2 6893   8.693   8.152   5.063  0.0189 -0.0380  0.2555
  765PNCE   T1A 6894   8.886   7.592   5.471 -0.1368 -0.1657 -0.0607
  765PNCE   C2A 6895   8.710   7.441   5.840  0.0423  0.3708 -0.0897
  765PNCE   C3A 6896   8.812   7.442   6.230  0.3734  0.0015  0.0490
  765PNCE   C1B 6897   8.812   8.283   5.456 -0.1971  0.1175 -0.2120
  765PNCE   C2B 6898   9.140   8.446   5.710  0.2294  0.0038  0.1013
  765PNCE   C3B 6899   9.396   8.729   5.857 -0.0096  0.0165 -0.0929
  765PNCE   D4B 6900   9.431   9.053   6.191 -0.0016  0.2913 -0.2832
  765PNCE   C5B 6901   9.526   8.776   6.534  0.1595  0.1768 -0.1617
  765PNCE   C6B 6902   9.751   9.045   6.871 -0.0872 -0.0785 -0.1580
  766PNCE   AM1 6903  12.915   8.356   5.134  0.1649 -0.0930 -0.1473
  766PNCE   AM2 6904  13.119   8.259   4.941  0.0688  0.1340  0.1019
  766PNCE   T1A 6905  13.259   8.516   5.407 -0.1198  0.1395 -0.1089
  766PNCE   C2A 6906  13.320   8.564   5.856 -0.1878 -0.0675 -0.1086
  766PNCE   C3A 6907  13.309   8.667   6.300 -0.1651 -0.0809  0.1880
  766PNCE   C1B 6908  13.125   8.006   5.341 -0.0685  0.3314 -0.1107
  766PNCE   C2B 6909  13.016   7.764   5.629 -0.0023 -0.0790  0.1507
  766PNCE   C3B 6910  13.092   7.715   6.087  0.0873  0.1091 -0.2493
  766PNCE   D4B 6911  13.348   7.606   6.372  0.3375 -0.1965  0.0780
  766PNCE   C5B 6912  13.764   7.396   6.441  0.0496  0.1283 -0.0637
  766PNCE   C6B 6913  14.268   7.363   6.566 -0.0412  0.2049  0.0468
  767CHOL   ROH 6914   4.327   2.883   8.401 -0.1211  0.3726  0.0437
  767CHOL    R1 6915   4.310   2.820   8.125 -0.0394  0.2974  0.0554
  767CHOL    R2 6916   4.206   2.995   7.938  0.0665  0.2689 -0.0323
  767CHOL    R3 6917   4.445   2.955   7.815  0.1010  0.1772  0.0630
  767CHOL    R4 6918   4.256   3.006   7.597  0.1655  0.0378 -0.0266
  767CHOL    R5 6919   4.389   2.834   7.616  0.1545  0.0451  0.1269
  767CHOL    C1 6920   4.509   2.974   7.281  0.2555 -0.1829  0.0662
  767CHOL    C2 6921   4.396   3.035   6.933 -0.1544 -0.2522 -0.0072
  768XCA    COO 6922   2.015  15.588   8.716  0.0928  0.2958  0.0843
  768XCA     C1 6923   2.371  15.327   8.455  0.3055 -0.1124  0.2514
  768XCA     C2 6924   2.569  14.947   8.170  0.1290 -0.1618 -0.0050
  768XCA     C3 6925   2.337  14.712   7.800 -0.1052  0.2993  0.1116
  768XCA     C4 6926   2.132  14.804   7.419  0.2168  0.0975 -0.0248
  768XCA     C5 6927   1.867  15.007   7.170  0.3137 -0.2958  0.3038
  768XCA     C6 6928   1.685  14.801   6.912 -0.0062  0.0278  0.3651
  769XCA    COO 6929  14.668  10.810   8.599 -0.1350  0.2352  0.1381
  769XCA     C1 6930  14.763  10.900   8.220  0.3858  0.0994 -0.0567
  769XCA     C2 6931  14.723  10.909   7.754  0.3181 -0.1461  0.0312
  769XCA     C3 6932  14.740  10.624   7.429  0.0638  0.0446  0.0008
  769XCA     C4 6933  14.637  10.603   6.976  0.2571  0.1228  0.2178
  769XCA     C5 6934  14.449  10.839   6.715 -0.1269 -0.4002 -0.0041
  769XCA     C6 6935  14.416  11.295   6.763 -0.4745  0.1476  0.0864
  770PNCE   AM1 6936   3.221  13.587   4.702  0.2833  0.0565 -0.1975
  770PNCE   AM2 6937   3.078  13.277   4.608 -0.1043  0.0449  0.0116
  770PNCE   T1A 6938   3.035  14.114   4.795 -0.0153 -0.2190  0.4363
  770PNCE   C2A 6939   2.848  14.334   5.097  0.0335  0.1556 -0.1732
  770PNCE   C3A 6940   2.492  14.333   5.375 -0.2204 -0.0679  0.2218
  770PNCE   C1B 6941   2.993  13.251   4.949  0.1274 -0.1371 -0.0253
  770PNCE   C2B 6942   3.004  13.155   5.350  0.2801 -0.1670 -0.0699
  770PNCE   C3B 6943   3.285  13.211   5.712  0.2409 -0.1482 -0.1219
  770PNCE   D4B 6944   3.692  13.019   5.757  0.1951 -0.0269  0.0818
  770PNCE   C5B 6945   3.626  12.640   6.090 -0.0820  0.0204  0.1559
  770PNCE   C6B 6946   3.321  12.291   6.276 -0.0784  0.2189  0.0241
  771PNCE   AM1 6947   0.725   4.484   4.963 -0.0026  0.0697 -0.0543
  771PNCE   AM2 6948   0.765   4.182   4.961 -0.0337 -0.1820 -0.1696
  771PNCE   T1A 6949   0.577   4.471   5.335 -0.0440  0.0154 -0.1371
  771PNCE   C2A 6950   0.588   4.232   5.719 -0.0067 -0.2254 -0.1029
  771PNCE   C3A 6951   0.784   4.168   6.094 -0.0071  0.0638  0.1349
  771PNCE   C1B 6952   0.558   3.932   5.264  0.1412 -0.1250  0.0587
  771PNCE   C2B 6953   0.498   3.587   5.474 -0.2537  0.0801  0.0331
  771PNCE   C3B 6954   0.207   3.382   5.824  0.3211  0.1522  0.1702
  771PNCE   D4B 6955   0.170   3.063   6.094 -0.1332 -0.2497  0.1689
  771PNCE   C5B 6956  -0.162   3.107   6.468 -0.0834 -0.2460  0.0081
  771PNCE   C6B 6957  -0.181   2.907   6.882 -0.0660  0.0074  0.0576
  772CHOL   ROH 6958  15.635   7.413   5.783  0.2057 -0.1824 -0.0154
  772CHOL    R1 6959  15.688   7.307   6.040  0.1316 -0.0172  0.0695
  772CHOL    R2 6960  15.601   7.430   6.272  0.0530  0.1274 -0.0318
  772CHOL    R3 6961  15.492   7.186   6.322  0.0490  0.1532  0.0855
  772CHOL    R4 6962  15.472   7.331   6.577 -0.0136  0.2950 -0.0044
  772CHOL    R5 6963  15.562   7.135   6.545 -0.0021  0.2815  0.1298
  772CHOL    C1 6964  15.294   7.044   6.801 -0.0561  0.4168  0.1215
  772CHOL    C2 6965  15.089   6.747   6.841  0.0821  0.1881  0.0232
  773PNCE   AM1 6966  10.139   5.475   4.165  0.0387  0.0766  0.1582
  773PNCE   AM2 6967  10.000   5.704   4.138  0.1432  0.1005 -0.0875
  773PNCE   T1A 6968  10.199   5.428   4.548 -0.0785 -0.1534  0.3471
  773PNCE   C2A 6969  10.150   5.240   4.950 -0.2265  0.1277  0.5342
  773PNCE   C3A 6970  10.243   5.129   5.311 -0.1665  0.0773  0.1394
  773PNCE   C1B 6971   9.749   5.592   4.483 -0.0438 -0.1250 -0.1234
  773PNCE   C2B 6972   9.675   5.486   4.890  0.2286 -0.0569  0.1582
  773PNCE   C3B 6973   9.672   5.343   5.402  0.0533 -0.1983 -0.0668
  773PNCE   D4B 6974   9.297   5.288   5.639  0.0764  0.1515 -0.3501
  773PNCE   C5B 6975   9.262   5.685   5.854 -0.0146 -0.1726  0.2551
  773PNCE   C6B 6976   9.005   6.034   6.128 -0.1682 -0.0111  0.0457
  774CHOL   ROH 6977  12.602   1.492   8.288  0.1804  0.1374  0.0487
  774CHOL    R1 6978  12.631   1.474   8.007  0.0148  0.2621  0.0220
  774CHOL    R2 6979  12.840   1.592   7.871  0.0603  0.1351 -0.0249
  774CHOL    R3 6980  12.876   1.340   7.774 -0.2345  0.1495 -0.1787
  774CHOL    R4 6981  13.001   1.516   7.575  0.3466  0.1075  0.1346
  774CHOL    R5 6982  12.849   1.364   7.537  0.1334  0.3938 -0.2016
  774CHOL    C1 6983  13.128   1.236   7.311  0.2365  0.1049  0.0831
  774CHOL    C2 6984  13.096   0.835   7.216  0.1124 -0.0093 -0.1251
  775CHOL   ROH 6985   0.115  15.192   7.165 -0.1063 -0.0772  0.1019
  775CHOL    R1 6986  -0.106  15.223   6.991  0.1208  0.0685 -0.1684
  775CHOL    R2 6987  -0.085  15.188   6.717  0.3527 -0.3293 -0.1100
  775CHOL    R3 6988  -0.289  15.013   6.757  0.0111  0.0608 -0.0751
  775CHOL    R4 6989  -0.317  15.095   6.478  0.5628 -0.4117 -0.2846
  775CHOL    R5 6990  -0.471  15.103   6.631  0.3346  0.1198 -0.5199
  775CHOL    C1 6991  -0.643  14.877   6.376  0.3644 -0.0934 -0.3537
  775CHOL    C2 6992  -0.957  14.584   6.394  0.0516 -0.0866 -0.0711
  776CHOL   ROH 6993   9.384   0.910   4.782  0.0307 -0.1227  0.0770
  776CHOL    R1 6994   9.189   0.766   4.927  0.0530 -0.0954  0.1339
  776CHOL    R2 6995   9.159   0.789   5.201 -0.0558  0.1308  0.1029
  776CHOL    R3 6996   8.901   0.846   5.135 -0.0639 -0.0586 -0.0385
  776CHOL    R4 6997   8.900   0.820   5.427 -0.1158  0.3505  0.0070
  776CHOL    R5 6998   8.771   0.714   5.287 -0.0452  0.1004  0.1218
  776CHOL    C1 6999   8.507   0.891   5.498 -0.1585  0.3007 -0.1813
  776CHOL    C2 7000   8.067   0.851   5.311  0.0924  0.1611  0.2109
  777CHOL   ROH 7001  12.828   1.267   5.486  0.0278 -0.0722 -0.0675
  777CHOL    R1 7002  12.754   1.440   5.697  0.0666 -0.1077 -0.0266
  777CHOL    R2 7003  12.883   1.680   5.745 -0.0501 -0.0314 -0.1317
  777CHOL    R3 7004  12.632   1.782   5.729 -0.1258 -0.1794  0.0441
  777CHOL    R4 7005  12.772   1.959   5.917  0.0848  0.2256 -0.4493
  777CHOL    R5 7006  12.583   1.855   5.952  0.1685  0.1870  0.0045
  777CHOL    C1 7007  12.471   2.217   6.001  0.0922  0.2363 -0.4691
  777CHOL    C2 7008  12.311   2.572   6.001  0.0011  0.1366 -0.0273
  778PNCE   AM1 7009  12.274   6.120   5.796  0.2087  0.1823 -0.1912
  778PNCE   AM2 7010  12.346   5.995   5.519  0.0403  0.0500 -0.1253
  778PNCE   T1A 7011  12.390   6.176   6.161 -0.1410  0.0572 -0.2397
  778PNCE   C2A 7012  12.414   6.152   6.694  0.0007 -0.2374 -0.1531
  778PNCE   C3A 7013  12.561   6.133   7.217  0.0920  0.0711  0.0395
  778PNCE   C1B 7014  12.739   5.833   5.695 -0.0741  0.1050  0.0138
  778PNCE   C2B 7015  12.930   5.839   6.117 -0.1106  0.2750 -0.0944
  778PNCE   C3B 7016  12.792   5.875   6.516 -0.1411 -0.0610  0.1449
  778PNCE   D4B 7017  12.882   5.869   6.835  0.2056 -0.0132  0.0841
  778PNCE   C5B 7018  13.142   5.577   6.961 -0.0960 -0.0236 -0.2740
  778PNCE   C6B 7019  13.234   5.130   7.045 -0.1014 -0.3277 -0.0999
  779XCA    COO 7020   7.066  12.691   5.031  0.0469 -0.0022 -0.2319
  779XCA     C1 7021   6.953  12.428   5.370  0.2513  0.0880 -0.2216
  779XCA     C2 7022   6.967  12.187   5.772 -0.0575 -0.1195  0.2938
  779XCA     C3 7023   6.828  12.187   6.162 -0.2083 -0.0732 -0.1145
  779XCA     C4 7024   6.958  12.087   6.496  0.1049  0.5912 -0.0765
  779XCA     C5 7025   7.016  12.365   6.879 -0.1349 -0.2571 -0.2589
  779XCA     C6 7026   6.737  12.424   7.087  0.1383 -0.1690  0.1339
  780PNCE   AM1 7027   6.606   1.173   4.522 -0.0221  0.1338  0.2480
  780PNCE   AM2 7028   6.990   1.223   4.345  0.2672  0.1425 -0.6241
  780PNCE   T1A 7029   6.679   1.037   4.974  0.1753  0.0732  0.1366
  780PNCE   C2A 7030   6.797   1.179   5.466  0.0873  0.0871 -0.1615
  780PNCE   C3A 7031   6.896   1.355   5.892  0.0120 -0.1723  0.0328
  780PNCE   C1B 7032   7.220   1.092   4.673  0.1600  0.0943 -0.2574
  780PNCE   C2B 7033   7.543   1.178   5.014  0.0805 -0.0446 -0.0922
  780PNCE   C3B 7034   7.652   1.071   5.492 -0.3227  0.0659  0.6112
  780PNCE   D4B 7035   7.869   0.773   5.796  0.1514 -0.0383 -0.1479
  780PNCE   C5B 7036   8.162   0.520   5.678 -0.1502  0.0868 -0.2077
  780PNCE   C6B 7037   8.331   0.107   5.696 -0.0421 -0.2960  0.0502
  781PNCE   AM1 7038   7.976  14.981   4.362  0.0250  0.2867 -0.0540
  781PNCE   AM2 7039   7.847  15.235   4.174 -0.0775 -0.2712  0.0381
  781PNCE   T1A 7040   7.892  15.045   4.781 -0.1583  0.1654 -0.1724
  781PNCE   C2A 7041   7.943  15.163   5.168  0.4423  0.1748 -0.0437
  781PNCE   C3A 7042   7.807  15.417   5.514 -0.0502 -0.1248 -0.0746
  781PNCE   C1B 7043   7.771  15.504   4.542 -0.0826  0.1575  0.2725
  781PNCE   C2B 7044   7.883  15.703   4.915  0.0994 -0.2329  0.0254
  781PNCE   C3B 7045   7.871  15.915   5.407 -0.3277  0.0536  0.2736
  781PNCE   D4B 7046   7.787  16.000   5.781 -0.0921 -0.1479 -0.0960
  781PNCE   C5B 7047   8.102  15.710   6.010 -0.0614  0.2157 -0.2251
  781PNCE   C6B 7048   8.458  15.483   6.187  0.0857 -0.1452 -0.2089
  782PNCE   AM1 7049   5.619   6.907   4.550  0.0858  0.1270  0.1187
  782PNCE   AM2 7050   5.878   6.682   4.571  0.1038  0.1078 -0.1287
  782PNCE   T1A 7051   5.571   6.714   4.991  0.0914  0.2614 -0.1898
  782PNCE   C2A 7052   5.921   6.697   5.294  0.1106  0.1182  0.1081
  782PNCE   C3A 7053   6.025   6.697   5.686 -0.2825  0.0743 -0.0221
  782PNCE   C1B 7054   6.035   7.026   4.887 -0.0432  0.2909  0.1751
  782PNCE   C2B 7055   6.221   7.132   5.187 -0.3387 -0.2869  0.0391
  782PNCE   C3B 7056   6.412   7.059   5.600  0.2288 -0.1518  0.1160
  782PNCE   D4B 7057   6.316   6.900   6.041  0.0158 -0.0338 -0.3971
  782PNCE   C5B 7058   6.063   6.488   6.115  0.0471 -0.0738  0.0089
  782PNCE   C6B 7059   6.152   6.120   6.143 -0.1074 -0.0068 -0.2300
  783PNCE   AM1 7060  13.665   9.493   4.835  0.0341 -0.3175 -0.0838
  783PNCE   AM2 7061  13.245   9.629   4.790  0.0934  0.1755 -0.1883
  783PNCE   T1A 7062  13.630   9.733   5.217 -0.1790  0.3791 -0.1790
  783PNCE   C2A 7063  13.649   9.888   5.603 -0.0174 -0.0847  0.1425
  783PNCE   C3A 7064  13.790   9.902   5.923  0.1750 -0.1594  0.0658
  783PNCE   C1B 7065  12.962   9.716   5.157 -0.1933 -0.0760  0.0689
  783PNCE   C2B 7066  12.634   9.817   5.520 -0.1747 -0.1356  0.0841
  783PNCE   C3B 7067  12.295  10.035   5.650 -0.1274  0.2125  0.0292
  783PNCE   D4B 7068  11.945  10.117   5.715 -0.0678 -0.2152  0.1672
  783PNCE   C5B 7069  11.893  10.389   6.062 -0.2956 -0.0824 -0.0514
  783PNCE   C6B 7070  11.523  10.512   6.310 -0.0754  0.1203  0.3183
  784CHOL   ROH 7071   2.951  14.693   8.197  0.1179  0.0982  0.0990
  784CHOL    R1 7072   2.946  14.730   7.916 -0.0175  0.0579  0.0962
  784CHOL    R2 7073   2.944  14.981   7.800  0.0215  0.0383  0.0622
  784CHOL    R3 7074   3.160  14.885   7.666 -0.0890 -0.0671 -0.0452
  784CHOL    R4 7075   3.077  15.121   7.514 -0.0208  0.0103  0.0278
  784CHOL    R5 7076   3.108  14.920   7.435 -0.1703  0.0013 -0.0192
  784CHOL    C1 7077   3.358  15.113   7.221 -0.1492 -0.1049 -0.0931
  784CHOL    C2 7078   3.562  15.276   6.985 -0.3471 -0.1290 -0.1607
  785PNCE   AM1 7079  14.250  14.555   4.712 -0.1489 -0.1252 -0.1130
  785PNCE   AM2 7080  14.405  14.307   4.743  0.3367  0.1606  0.2354
  785PNCE   T1A 7081  13.936  14.699   5.033 -0.2987 -0.1102 -0.0447
  785PNCE   C2A 7082  13.602  14.900   5.308 -0.1013 -0.2763  0.1482
  785PNCE   C3A 7083  13.626  14.890   5.661 -0.1273  0.1025 -0.1282
  785PNCE   C1B 7084  14.420  14.221   5.183  0.1238 -0.1848  0.1814
  785PNCE   C2B 7085  14.190  14.110   5.628 -0.0041 -0.1242  0.1710
  785PNCE   C3B 7086  14.200  13.803   5.884  0.2420  0.1143  0.1301
  785PNCE   D4B 7087  14.404  13.377   6.025 -0.0154  0.0632  0.2542
  785PNCE   C5B 7088  14.137  12.965   5.986  0.0336  0.0002  0.4974
  785PNCE   C6B 7089  14.280  12.632   6.107 -0.0452 -0.4849  0.3338
  786XCA    COO 7090  14.698   5.015   4.742 -0.0595  0.0482  0.0967
  786XCA     C1 7091  14.792   5.132   5.212  0.0690  0.2217  0.0360
  786XCA     C2 7092  14.975   5.392   5.345  0.0106 -0.0837 -0.0877
  786XCA     C3 7093  15.117   5.643   5.796  0.1505 -0.0122  0.0717
  786XCA     C4 7094  15.321   5.439   6.126  0.1115  0.1567 -0.1314
  786XCA     C5 7095  15.300   5.389   6.606 -0.0620  0.0283  0.0415
  786XCA     C6 7096  15.359   5.619   6.994 -0.0890  0.0090 -0.0414
  787CHOL   ROH 7097  10.662   4.892   6.638 -0.1963  0.3158 -0.0057
  787CHOL    R1 7098  10.729   4.997   6.384 -0.1023  0.2507 -0.0091
  787CHOL    R2 7099  10.753   4.839   6.159  0.0927  0.1744  0.0583
  787CHOL    R3 7100  10.573   5.015   6.055  0.0687  0.0572 -0.1021
  787CHOL    R4 7101  10.793   5.011   5.862  0.2181  0.1684  0.0721
  787CHOL    R5 7102  10.708   5.187   5.958  0.0391  0.1264 -0.0148
  787CHOL    C1 7103  10.649   5.277   5.592  0.2686  0.0547 -0.0705
  787CHOL    C2 7104  10.592   5.675   5.408  0.2207  0.6562  0.3128
  788CHOL   ROH 7105   4.157   5.256   7.290  0.0271  0.1385  0.0321
  788CHOL    R1 7106   4.284   5.034   7.412 -0.0390  0.0955  0.0236
  788CHOL    R2 7107   4.495   5.060   7.588  0.0172  0.0224 -0.0287
  788CHOL    R3 7108   4.335   4.911   7.750 -0.0104  0.1086  0.0232
  788CHOL    R4 7109   4.609   4.852   7.839 -0.0149 -0.0631 -0.0849
  788CHOL    R5 7110   4.457   4.707   7.781 -0.1240  0.0333 -0.0349
  788CHOL    C1 7111   4.526   4.591   8.138 -0.0595 -0.0320 -0.0688
  788CHOL    C2 7112   4.390   4.333   8.331 -0.0360  0.1065 -0.1541
  789XCA    COO 7113   9.472   2.960   8.517  0.0175  0.1692 -0.0529
  789XCA     C1 7114   9.350   2.558   8.382 -0.0040 -0.1838  0.1285
  789XCA     C2 7115   9.125   2.298   8.061 -0.0238  0.1487 -0.1152
  789XCA     C3 7116   9.027   2.223   7.601 -0.2516  0.0092 -0.0971
  789XCA     C4 7117   9.144   2.063   7.230 -0.2770 -0.2456 -0.0683
  789XCA     C5 7118   9.279   1.610   7.035  0.1212 -0.1234 -0.1925
  789XCA     C6 7119   9.541   1.298   7.061 -0.3029 -0.0489  0.2287
  790XCA    COO 7120   2.697   1.874   5.184  0.3062 -0.0314  0.2008
  790XCA     C1 7121   2.830   2.146   5.543 -0.0305 -0.0713  0.0564
  790XCA     C2 7122   2.631   2.564   5.761  0.1029 -0.0076  0.2737
  790XCA     C3 7123   2.538   2.919   6.002 -0.1687  0.1416 -0.0653
  790XCA     C4 7124   2.501   3.171   6.427  0.0863 -0.2422 -0.0816
  790XCA     C5 7125   2.574   3.568   6.559 -0.1058  0.2159 -0.0182
  790XCA     C6 7126   2.812   3.761   6.913  0.0163 -0.5331  0.1417
  791CHOL   ROH 7127  13.419   0.540   5.433 -0.0715  0.1632  0.1347
  791CHOL    R1 7128  13.697   0.489   5.448 -0.0971  0.0144  0.1066
  791CHOL    R2 7129  13.828   0.443   5.687 -0.0985 -0.0456  0.0905
  791CHOL    R3 7130  13.911   0.217   5.562 -0.2269 -0.0964  0.0927
  791CHOL    R4 7131  14.067   0.226   5.811  0.1643  0.1057 -0.1393
  791CHOL    R5 7132  14.146   0.207   5.608 -0.1419  0.0093 -0.2622
  791CHOL    C1 7133  14.284  -0.113   5.764  0.1969  0.1461 -0.2712
  791CHOL    C2 7134  14.612  -0.163   5.921 -0.3526 -0.1893  0.0479
  792PNCE   AM1 7135  14.935  10.130   4.643  0.0415 -0.3440  0.0431
  792PNCE   AM2 7136  14.971  10.426   4.788  0.1538  0.2104 -0.0045
  792PNCE   T1A 7137  14.985   9.873   4.999  0.1978 -0.1017  0.1795
  792PNCE   C2A 7138  14.583   9.764   5.236  0.0865 -0.2159 -0.3259
  792PNCE   C3A 7139  14.420   9.406   5.391 -0.2158  0.3831  0.0681
  792PNCE   C1B 7140  14.708  10.302   5.038  0.3526  0.0300 -0.1051
  792PNCE   C2B 7141  14.515  10.181   5.389  0.0357 -0.5635 -0.2563
  792PNCE   C3B 7142  14.292  10.189   5.842  0.2028 -0.0761 -0.0677
  792PNCE   D4B 7143  14.079  10.068   6.276  0.0896 -0.0713  0.0564
  792PNCE   C5B 7144  14.110   9.712   6.525  0.0424  0.5181  0.1839
  792PNCE   C6B 7145  13.780   9.472   6.668 -0.0905  0.0205 -0.0385
  793XCA    COO 7146   8.365  13.409   4.860 -0.1084 -0.0010 -0.1838
  793XCA     C1 7147   8.795  13.635   5.025  0.2373 -0.2706  0.0006
  793XCA     C2 7148   8.839  13.797   5.347  0.2329  0.2182 -0.3173
  793XCA     C3 7149   9.058  13.788   5.611  0.0886 -0.0052  0.0782
  793XCA     C4 7150   9.190  13.888   6.012  0.0485  0.1304  0.0698
  793XCA     C5 7151   9.362  13.758   6.389 -0.4149 -0.4285  0.4416
  793XCA     C6 7152   9.626  13.350   6.444  0.2051 -0.0555  0.3131
  794CHOL   ROH 7153   4.147   0.466   6.007  0.1069  0.0546 -0.1333
  794CHOL    R1 7154   4.193   0.266   6.202 -0.1345 -0.0229 -0.1520
  794CHOL    R2 7155   4.144  -0.002   6.155  0.1217 -0.0316 -0.3984
  794CHOL    R3 7156   4.403  -0.030   6.232  0.0019  0.0946  0.0775
  794CHOL    R4 7157   4.283  -0.295   6.275  0.1377 -0.0896 -0.5565
  794CHOL    R5 7158   4.392  -0.176   6.422 -0.2554 -0.1992 -0.1515
  794CHOL    C1 7159   4.607  -0.491   6.418  0.0345 -0.0048 -0.2017
  794CHOL    C2 7160   4.723  -0.550   6.681  0.0796 -0.2369  0.1915
  795PNCE   AM1 7161  13.810  13.336   4.636  0.2873  0.3195  0.0107
  795PNCE   AM2 7162  13.792  13.570   4.356 -0.0309 -0.0956  0.4081
  795PNCE   T1A 7163  13.518  13.169   4.738 -0.1147 -0.0979 -0.0007
  795PNCE   C2A 7164  13.264  13.235   5.132 -0.0111  0.3237 -0.2369
  795PNCE   C3A 7165  13.132  12.909   5.455 -0.2183  0.2193  0.5326
  795PNCE   C1B 7166  13.588  13.850   4.668 -0.0724 -0.0497 -0.0295
  795PNCE   C2B 7167  13.368  13.831   5.086  0.1048  0.0683 -0.0513
  795PNCE   C3B 7168  13.354  13.638   5.421  0.1114 -0.1736 -0.3165
  795PNCE   D4B 7169  13.326  13.424   5.833 -0.0073 -0.1151 -0.2546
  795PNCE   C5B 7170  13.216  13.663   6.235 -0.0166  0.1458  0.1949
  795PNCE   C6B 7171  13.373  14.120   6.444 -0.0417 -0.1348 -0.1424
  796XCA    COO 7172   6.164   0.517   4.903  0.2823  0.0304 -0.0871
  796XCA     C1 7173   6.112   0.622   5.358 -0.0854 -0.1970  0.1663
  796XCA     C2 7174   5.970   0.735   5.774  0.0250 -0.1044  0.0487
  796XCA     C3 7175   6.114   0.770   6.190  0.0996 -0.1055  0.0155
  796XCA     C4 7176   6.318   0.622   6.571  0.1960  0.1044  0.0869
  796XCA     C5 7177   6.121   0.735   6.956  0.1897  0.1729  0.1757
  796XCA     C6 7178   6.062   0.722   7.370  0.2383  0.2902 -0.0416
  797XCA    COO 7179   5.356  13.985   5.007 -0.2999  0.1576  0.0287
  797XCA     C1 7180   5.499  13.903   5.359  0.1224 -0.1001  0.3769
  797XCA     C2 7181   5.461  14.051   5.802  0.0697 -0.0064  0.0983
  797XCA     C3 7182   5.098  14.172   6.083 -0.2872 -0.0532 -0.2943
  797XCA     C4 7183   4.695  14.144   6.308  0.1818 -0.0151 -0.1249
  797XCA     C5 7184   4.491  14.282   6.598  0.4112  0.2188 -0.1693
  797XCA     C6 7185   4.728  14.369   6.974 -0.3294 -0.0402  0.0659
  798PNCE   AM1 7186   8.290   5.066   4.792  0.1271 -0.1305 -0.1009
  798PNCE   AM2 7187   8.057   4.743   4.869  0.1899  0.0006  0.0413
  798PNCE   T1A 7188   8.319   4.917   5.188 -0.0271  0.0467 -0.1666
  798PNCE   C2A 7189   8.244   4.863   5.572  0.1512  0.0760 -0.0876
  798PNCE   C3A 7190   8.433   4.912   5.938 -0.0333  0.2364  0.0518
  798PNCE   C1B 7191   7.850   4.556   5.255 -0.3037 -0.1438  0.0446
  798PNCE   C2B 7192   7.595   4.282   5.602 -0.0939  0.0930 -0.0097
  798PNCE   C3B 7193   7.622   3.911   5.488  0.0175 -0.0933  0.2391
  798PNCE   D4B 7194   7.813   3.463   5.532 -0.1313 -0.0797  0.0046
  798PNCE   C5B 7195   7.652   3.265   5.082 -0.2249  0.2183  0.1492
  798PNCE   C6B 7196   7.626   2.832   4.818 -0.0578 -0.0432 -0.3835
  799CHOL   ROH 7197   0.501   6.161   5.090 -0.0219 -0.1940  0.0761
  799CHOL    R1 7198   0.653   6.077   5.314 -0.0138 -0.1286  0.0960
  799CHOL    R2 7199   0.702   6.240   5.532 -0.1052 -0.1041  0.1000
  799CHOL    R3 7200   0.596   6.031   5.670 -0.0385 -0.1444  0.0897
  799CHOL    R4 7201   0.733   6.194   5.873 -0.2169 -0.0326  0.1202
  799CHOL    R5 7202   0.762   5.981   5.836 -0.0764 -0.0212  0.1650
  799CHOL    C1 7203   0.653   5.971   6.201 -0.2193 -0.0288  0.1223
  799CHOL    C2 7204   0.592   6.099   6.526 -0.0295  0.2290 -0.0850
  800PNCE   AM1 7205   4.543   5.767   5.770  0.3936  0.2201 -0.1540
  800PNCE   AM2 7206   4.260   5.598   5.725  0.2435  0.0127  0.2325
  800PNCE   T1A 7207   4.563   5.824   6.244 -0.0098 -0.0893  0.2238
  800PNCE   C2A 7208   4.678   5.671   6.668  0.1325  0.3957 -0.2310
  800PNCE   C3A 7209   4.959   5.371   6.892  0.0359  0.1602 -0.2479
  800PNCE   C1B 7210   4.328   5.367   6.203 -0.2947 -0.3973  0.2501
  800PNCE   C2B 7211   4.221   5.174   6.601  0.0055 -0.0882  0.1757
  800PNCE   C3B 7212   4.444   5.281   6.937 -0.2377 -0.0349 -0.1386
  800PNCE   D4B 7213   4.710   5.333   7.332  0.2061 -0.0623 -0.2426
  800PNCE   C5B 7214   5.080   5.641   7.300  0.0459 -0.0129  0.1359
  800PNCE   C6B 7215   5.368   6.076   7.307  0.0457 -0.1484  0.1137
  801CHOL   ROH 7216   6.441   4.608   8.632  0.2425 -0.1926  0.0199
  801CHOL    R1 7217   6.569   4.794   8.461  0.1239 -0.1609 -0.0361
  801CHOL    R2 7218   6.473   4.856   8.210 -0.0306 -0.1428  0.0254
  801CHOL    R3 7219   6.484   5.111   8.303 -0.0019 -0.1524  0.0477
  801CHOL    R4 7220   6.539   5.134   8.016 -0.1901 -0.1124  0.0134
  801CHOL    R5 7221   6.662   5.212   8.179 -0.0943 -0.1162 -0.0563
  801CHOL    C1 7222   6.588   5.535   7.991 -0.2561 -0.1038  0.0276
  801CHOL    C2 7223   6.796   5.848   8.002  0.1101  0.1383 -0.2576
  802CHOL   ROH 7224  15.620  10.380   8.509  0.0097 -0.0367  0.2024
  802CHOL    R1 7225  15.601  10.216   8.279  0.0076  0.0365  0.1497
  802CHOL    R2 7226  15.516  10.312   8.035  0.0048  0.1148  0.1802
  802CHOL    R3 7227  15.751  10.207   7.948  0.0041  0.1433  0.1450
  802CHOL    R4 7228  15.581  10.219   7.708 -0.0615  0.0494  0.1856
  802CHOL    R5 7229  15.686  10.044   7.785 -0.0045  0.0900  0.2015
  802CHOL    C1 7230  15.840  10.067   7.436 -0.1008  0.0382  0.1556
  802CHOL    C2 7231  15.793  10.148   7.103 -0.1623  0.2634  0.0586
  803PNCE   AM1 7232  11.545   2.718   6.024  0.1863  0.1868 -0.1419
  803PNCE   AM2 7233  11.304   2.705   5.789  0.0885  0.1140 -0.0246
  803PNCE   T1A 7234  11.455   2.663   6.488  0.3188 -0.0322  0.0669
  803PNCE   C2A 7235  11.233   2.564   6.842 -0.2746  0.1323  0.0972
  803PNCE   C3A 7236  10.868   2.655   6.898 -0.2988 -0.0389  0.2272
  803PNCE   C1B 7237  10.919   2.836   6.101 -0.1610  0.2820 -0.1046
  803PNCE   C2B 7238  10.585   2.685   6.534 -0.0030  0.3093  0.2573
  803PNCE   C3B 7239  10.396   2.384   6.851 -0.2766  0.3713 -0.2952
  803PNCE   D4B 7240  10.000   2.191   6.883  0.0257  0.1209  0.1850
  803PNCE   C5B 7241   9.650   2.199   7.149 -0.1516  0.0194 -0.0029
  803PNCE   C6B 7242   9.382   2.505   7.224  0.1865  0.1023  0.1169
  804PNCE   AM1 7243  15.521  13.701   4.487 -0.1058  0.0400 -0.2697
  804PNCE   AM2 7244  15.601  14.085   4.510  0.3546  0.2359 -0.1911
  804PNCE   T1A 7245  15.916  13.448   4.510  0.2760  0.0121  0.1516
  804PNCE   C2A 7246  16.248  13.126   4.683 -0.1891  0.2619  0.0411
  804PNCE   C3A 7247  16.499  12.763   4.735  0.1103 -0.1803  0.1725
  804PNCE   C1B 7248  15.365  14.108   4.945 -0.1254 -0.0871 -0.1373
  804PNCE   C2B 7249  15.058  14.022   5.295  0.0173 -0.0829 -0.0084
  804PNCE   C3B 7250  14.797  14.228   5.636  0.0598  0.1473 -0.0115
  804PNCE   D4B 7251  14.528  14.315   6.021  0.1902  0.0434  0.1663
  804PNCE   C5B 7252  14.221  14.044   6.290  0.1753  0.0294  0.1670
  804PNCE   C6B 7253  13.847  13.981   6.582  0.1322 -0.0760  0.0759
  805XCA    COO 7254   0.722   1.519   5.022 -0.1433 -0.0232 -0.0483
  805XCA     C1 7255   0.662   1.204   5.359  0.0941  0.1119 -0.4239
  805XCA     C2 7256   0.841   0.979   5.635 -0.1435  0.3986 -0.1725
  805XCA     C3 7257   1.017   0.875   5.967 -0.5299 -0.3390 -0.1439
  805XCA     C4 7258   1.010   0.526   6.394  0.1223 -0.1692  0.6444
  805XCA     C5 7259   0.690   0.637   6.593 -0.1322 -0.2201 -0.2242
  805XCA     C6 7260   0.776   0.932   6.926 -0.1903 -0.1819  0.5120
  806PNCE   AM1 7261   7.595  13.420   4.667  0.0408  0.1388 -0.0998
  806PNCE   AM2 7262   7.580  13.072   4.801  0.1238  0.2080  0.2712
  806PNCE   T1A 7263   7.228  13.395   4.915 -0.2923  0.2453  0.1903
  806PNCE   C2A 7264   6.950  13.161   5.158  0.0985  0.2204  0.0600
  806PNCE   C3A 7265   6.880  12.925   5.551  0.0509  0.0364  0.1957
  806PNCE   C1B 7266   7.696  13.126   5.166  0.1012  0.1372  0.1871
  806PNCE   C2B 7267   7.344  12.967   5.505 -0.1354 -0.1474  0.1814
  806PNCE   C3B 7268   7.425  13.026   5.932  0.2504  0.3719 -0.3508
  806PNCE   D4B 7269   7.440  12.873   6.397 -0.0633  0.1164  0.0180
  806PNCE   C5B 7270   7.803  12.622   6.499 -0.1900  0.1571 -0.0758
  806PNCE   C6B 7271   7.927  12.429   6.829  0.1573  0.1115 -0.0469
  807PNCE   AM1 7272   3.874   4.284   5.218 -0.4100 -0.0180  0.1492
  807PNCE   AM2 7273   3.997   4.489   4.996 -0.1272  0.3936  0.0878
  807PNCE   T1A 7274   3.953   4.142   5.629  0.1308 -0.1876  0.0318
  807PNCE   C2A 7275   4.124   4.121   6.036  0.0800  0.0078  0.0751
  807PNCE   C3A 7276   4.219   3.799   6.349 -0.1407  0.1700 -0.2444
  807PNCE   C1B 7277   3.967   4.747   5.335  0.0218 -0.1824 -0.0985
  807PNCE   C2B 7278   4.222   4.664   5.773  0.1099  0.3364 -0.1094
  807PNCE   C3B 7279   4.528   4.450   5.931  0.0511 -0.4648  0.0963
  807PNCE   D4B 7280   4.602   4.031   6.028  0.0942 -0.3293 -0.0092
  807PNCE   C5B 7281   4.805   3.993   6.310 -0.1308  0.0285 -0.0906
  807PNCE   C6B 7282   5.108   4.084   6.596 -0.1426 -0.1975  0.1408
  808PNCE   AM1 7283   2.621  14.719   4.535 -0.2035  0.2483 -0.2473
  808PNCE   AM2 7284   2.648  14.329   4.545  0.1078 -0.2528  0.4493
  808PNCE   T1A 7285   2.454  14.770   4.983 -0.0868 -0.0562  0.0100
  808PNCE   C2A 7286   2.538  15.039   5.269  0.3303  0.0453 -0.2965
  808PNCE   C3A 7287   2.729  15.372   5.673  0.0823  0.0720  0.1266
  808PNCE   C1B 7288   2.401  14.158   4.869  0.2479  0.2162 -0.0287
  808PNCE   C2B 7289   1.997  14.225   5.064 -0.1036 -0.0252 -0.0730
  808PNCE   C3B 7290   1.977  14.224   5.490  0.2059 -0.2623  0.1178
  808PNCE   D4B 7291   2.200  14.193   5.873  0.1769 -0.0552 -0.0227
  808PNCE   C5B 7292   2.462  14.520   5.937  0.2317 -0.1251  0.0638
  808PNCE   C6B 7293   2.427  14.806   6.238  0.1574 -0.0541 -0.1247
  809CHOL   ROH 7294   2.078   5.904   5.396 -0.0437  0.0296 -0.0760
  809CHOL    R1 7295   2.031   5.836   5.667 -0.0343  0.0787 -0.0613
  809CHOL    R2 7296   2.163   5.629   5.794 -0.0878  0.0470 -0.0506
  809CHOL    R3 7297   2.225   5.823   5.974  0.0002  0.0507 -0.0852
  809CHOL    R4 7298   2.332   5.575   6.091 -0.1236  0.0259 -0.0346
  809CHOL    R5 7299   2.196   5.716   6.187 -0.0567  0.1079 -0.0665
  809CHOL    C1 7300   2.488   5.726   6.433 -0.0618  0.0171 -0.0576
  809CHOL    C2 7301   2.579   5.801   6.760  0.0018  0.1204 -0.2070
  810PNCE   AM1 7302   4.354   6.063   6.642 -0.1627 -0.0954 -0.2369
  810PNCE   AM2 7303   4.100   5.809   6.507 -0.1484 -0.0846 -0.0552
  810PNCE   T1A 7304   4.537   6.260   6.942  0.0163 -0.1932  0.1660
  810PNCE   C2A 7305   5.025   6.271   7.003  0.1055 -0.3127  0.0459
  810PNCE   C3A 7306   5.200   5.854   6.826  0.1606 -0.0658  0.1938
  810PNCE   C1B 7307   4.209   5.706   6.945 -0.1438 -0.1099  0.5915
  810PNCE   C2B 7308   4.082   6.102   7.075 -0.0647 -0.1380 -0.0248
  810PNCE   C3B 7309   3.834   6.203   7.439 -0.2018 -0.0019  0.2064
  810PNCE   D4B 7310   3.598   6.084   7.729 -0.0393 -0.0254 -0.1006
  810PNCE   C5B 7311   3.622   6.292   8.121  0.0808  0.0459 -0.1780
  810PNCE   C6B 7312   3.693   6.106   8.411 -0.5218  0.1291  0.0297
  811PNCE   AM1 7313   7.054  11.514   5.162 -0.0483  0.0510  0.1469
  811PNCE   AM2 7314   7.295  11.265   5.206 -0.0024 -0.1255  0.0510
  811PNCE   T1A 7315   6.721  11.818   5.468 -0.1818  0.2828  0.3513
  811PNCE   C2A 7316   6.503  12.188   5.450  0.0758 -0.2328  0.1977
  811PNCE   C3A 7317   6.580  12.567   5.719 -0.2168  0.0870 -0.1475
  811PNCE   C1B 7318   7.662  11.150   5.466 -0.3427 -0.4806 -0.1364
  811PNCE   C2B 7319   7.908  11.167   5.798  0.3437 -0.0269 -0.2521
  811PNCE   C3B 7320   8.291  11.369   5.885  0.1902  0.3026 -0.3179
  811PNCE   D4B 7321   8.681  11.383   5.823  0.0172  0.0504 -0.0264
  811PNCE   C5B 7322   9.004  11.570   6.065  0.1512  0.1267  0.0440
  811PNCE   C6B 7323   9.399  11.597   6.264 -0.1399 -0.0718 -0.1312
  812CHOL   ROH 7324   2.798   4.981   7.235  0.3483 -0.3099  0.2708
  812CHOL    R1 7325   3.041   4.976   7.090  0.2105 -0.3011  0.0346
  812CHOL    R2 7326   3.057   4.880   6.831 -0.0953 -0.0128 -0.0993
  812CHOL    R3 7327   3.168   5.124   6.783  0.0148 -0.0253  0.0827
  812CHOL    R4 7328   3.269   4.952   6.567 -0.0291  0.0810 -0.0214
  812CHOL    R5 7329   3.389   5.074   6.702  0.0042 -0.0625  0.0786
  812CHOL    C1 7330   3.496   5.223   6.368  0.1127  0.1238  0.1948
  812CHOL    C2 7331   3.857   5.271   6.226 -0.1008 -0.0822 -0.2720
  813PNCE   AM1 7332   1.498   4.863   4.916  0.1051  0.1818  0.0098
  813PNCE   AM2 7333   1.185   4.640   5.051 -0.0633  0.1353  0.2086
  813PNCE   T1A 7334   1.548   5.346   5.187  0.1259 -0.0512  0.0203
  813PNCE   C2A 7335   1.780   5.457   5.524  0.2111  0.0512 -0.1541
  813PNCE   C3A 7336   1.955   5.230   5.870  0.0316  0.0395  0.2564
  813PNCE   C1B 7337   1.455   4.536   5.377 -0.0828 -0.2063  0.0243
  813PNCE   C2B 7338   1.288   4.474   5.839 -0.0663  0.4453 -0.1116
  813PNCE   C3B 7339   1.164   4.391   6.296 -0.0821 -0.1100 -0.0434
  813PNCE   D4B 7340   1.316   4.355   6.760 -0.1482  0.2090  0.2559
  813PNCE   C5B 7341   1.680   4.264   6.886  0.0482 -0.1038 -0.1944
  813PNCE   C6B 7342   2.121   4.377   6.758  0.0761  0.1504  0.0855
  814CHOL   ROH 7343  14.704   6.239   7.605 -0.0061 -0.1072 -0.0446
  814CHOL    R1 7344  14.480   6.224   7.776 -0.0995 -0.0175 -0.1566
  814CHOL    R2 7345  14.220   6.239   7.683 -0.0546 -0.1762 -0.3191
  814CHOL    R3 7346  14.192   6.004   7.817 -0.0574 -0.0657 -0.1235
  814CHOL    R4 7347  13.919   6.105   7.786 -0.0381  0.0145 -0.0115
  814CHOL    R5 7348  14.015   6.045   7.972  0.0638  0.1179 -0.0321
  814CHOL    C1 7349  13.717   5.806   7.972 -0.0309  0.2292  0.3513
  814CHOL    C2 7350  13.534   5.639   8.308  0.1368  0.0998  0.0386
  815XCA    COO 7351  14.084   1.884   4.636 -0.0215  0.1789  0.2472
  815XCA     C1 7352  14.151   2.006   5.079 -0.0871 -0.0284  0.0422
  815XCA     C2 7353  14.550   2.061   5.254 -0.3982 -0.1465  0.2017
  815XCA     C3 7354  14.802   2.002   5.593 -0.1147  0.0619  0.2394
  815XCA     C4 7355  15.257   2.090   5.626  0.2682 -0.0064  0.0816
  815XCA     C5 7356  15.527   1.883   5.863  0.0060  0.1648 -0.0092
  815XCA     C6 7357  15.386   1.719   6.222  0.1080  0.0390 -0.3349
  816PNCE   AM1 7358  11.466   3.687   5.173  0.3904  0.1322 -0.0867
  816PNCE   AM2 7359  11.266   3.826   5.214  0.2862  0.1814 -0.2913
  816PNCE   T1A 7360  11.531   3.509   5.622  0.0623 -0.0306  0.3171
  816PNCE   C2A 7361  11.710   3.444   5.938 -0.2706 -0.2942  0.1087
  816PNCE   C3A 7362  12.058   3.548   6.325  0.0753 -0.1082 -0.0078
  816PNCE   C1B 7363  10.808   3.732   5.334  0.0656 -0.0188  0.0442
  816PNCE   C2B 7364  10.458   4.032   5.481  0.1756  0.2495  0.1903
  816PNCE   C3B 7365  10.417   4.284   5.734  0.3281 -0.2637  0.0755
  816PNCE   D4B 7366  10.663   4.417   5.985 -0.0765 -0.5253  0.1268
  816PNCE   C5B 7367  11.018   4.625   5.745  0.0718 -0.0534 -0.1586
  816PNCE   C6B 7368  11.327   5.060   5.787 -0.0467 -0.2104  0.1985
  817PNCE   AM1 7369   3.142  10.237   5.356  0.3488 -0.0093 -0.3721
  817PNCE   AM2 7370   2.774  10.205   5.307 -0.0268  0.0302  0.0702
  817PNCE   T1A 7371   2.986  10.360   5.759  0.0653  0.0670 -0.3773
  817PNCE   C2A 7372   2.840  10.532   5.975  0.0707  0.3969  0.0570
  817PNCE   C3A 7373   2.583  10.911   6.068  0.3356  0.1326  0.1124
  817PNCE   C1B 7374   2.528  10.128   5.738  0.0685  0.0709 -0.0685
  817PNCE   C2B 7375   2.351   9.972   6.157 -0.1908  0.1704  0.0841
  817PNCE   C3B 7376   2.162   9.772   6.577  0.0466  0.0440 -0.0813
  817PNCE   D4B 7377   2.047   9.336   6.763 -0.0192  0.1248 -0.1737
  817PNCE   C5B 7378   1.678   9.221   6.865  0.0335 -0.1678  0.1998
  817PNCE   C6B 7379   1.575   8.868   7.072 -0.0517 -0.0507  0.1762
  818CHOL   ROH 7380   5.811   3.774   4.984 -0.0310  0.0005 -0.0167
  818CHOL    R1 7381   5.875   3.535   5.122 -0.0693 -0.0811 -0.1378
  818CHOL    R2 7382   5.924   3.529   5.394  0.2586 -0.1706 -0.1927
  818CHOL    R3 7383   5.729   3.339   5.392  0.0848  0.0003  0.0056
  818CHOL    R4 7384   5.834   3.335   5.666  0.1960  0.0698 -0.0389
  818CHOL    R5 7385   5.815   3.165   5.532 -0.0150  0.0051  0.0719
  818CHOL    C1 7386   5.600   3.044   5.823 -0.0037  0.3702  0.2367
  818CHOL    C2 7387   5.438   2.678   6.087  0.3057  0.3402 -0.0638
  819CHOL   ROH 7388  11.449   6.586   8.269 -0.1633  0.2163 -0.2239
  819CHOL    R1 7389  11.480   6.510   7.998 -0.1326  0.0440 -0.1736
  819CHOL    R2 7390  11.668   6.325   7.916 -0.0591  0.0610 -0.0468
  819CHOL    R3 7391  11.452   6.203   7.805 -0.0112 -0.1007  0.0340
  819CHOL    R4 7392  11.681   6.103   7.652 -0.0054  0.2033 -0.1652
  819CHOL    R5 7393  11.502   6.197   7.571 -0.1543  0.0658 -0.0034
  819CHOL    C1 7394  11.487   5.859   7.393  0.0708  0.1345 -0.1583
  819CHOL    C2 7395  11.384   5.579   7.152 -0.0302 -0.1811  0.3291
  820CHOL   ROH 7396   4.449   0.899   8.571 -0.0964  0.0423  0.0111
  820CHOL    R1 7397   4.510   0.716   8.363  0.1724  0.1002  0.0369
  820CHOL    R2 7398   4.338   0.667   8.153  0.1593 -0.3148  0.1417
  820CHOL    R3 7399   4.555   0.731   8.002 -0.0418  0.0851  0.0076
  820CHOL    R4 7400   4.385   0.571   7.824  0.2289 -0.4285  0.1836
  820CHOL    R5 7401   4.596   0.535   7.870  0.3442  0.0774  0.1211
  820CHOL    C1 7402   4.616   0.576   7.491  0.0806 -0.1194  0.0819
  820CHOL    C2 7403   4.700   0.723   7.211  0.1823 -0.1657 -0.0363
  821CHOL   ROH 7404  11.725  12.162   5.421  0.0155 -0.0580 -0.0433
  821CHOL    R1 7405  11.547  12.263   5.616 -0.0609 -0.1056 -0.0871
  821CHOL    R2 7406  11.631  12.352   5.864 -0.1776 -0.3395  0.0414
  821CHOL    R3 7407  11.498  12.577   5.793 -0.0015 -0.2102  0.1184
  821CHOL    R4 7408  11.418  12.527   6.071  0.0576 -0.1723  0.1453
  821CHOL    R5 7409  11.285  12.556   5.900  0.0181 -0.0326  0.1973
  821CHOL    C1 7410  11.168  12.841   6.125  0.3600  0.0464  0.2781
  821CHOL    C2 7411  11.004  12.926   6.510  0.2678  0.0259  0.0656
  822CHOL   ROH 7412  13.729   0.727   7.552 -0.2971  0.0001 -0.1526
  822CHOL    R1 7413  13.966   0.869   7.491 -0.2363  0.0041  0.0790
  822CHOL    R2 7414  14.115   0.818   7.264  0.0270 -0.0401  0.2542
  822CHOL    R3 7415  14.082   1.085   7.221  0.0478 -0.0535  0.1539
  822CHOL    R4 7416  14.300   1.007   7.042 -0.0629 -0.1600  0.0750
  822CHOL    R5 7417  14.304   1.168   7.189  0.0401 -0.0983  0.0001
  822CHOL    C1 7418  14.378   1.367   6.872 -0.0957 -0.2424 -0.1236
  822CHOL    C2 7419  14.767   1.487   6.758  0.2623  0.2033 -0.0333
  823PNCE   AM1 7420   9.110   2.919   4.563  0.2286 -0.0654  0.0367
  823PNCE   AM2 7421   8.941   2.650   4.527  0.4836  0.2936  0.1636
  823PNCE   T1A 7422   9.031   2.897   5.016  0.1247  0.0166 -0.2242
  823PNCE   C2A 7423   9.084   2.905   5.447 -0.1614  0.1645 -0.1493
  823PNCE   C3A 7424   9.011   3.029   5.799 -0.0609 -0.1596 -0.1094
  823PNCE   C1B 7425   8.742   2.427   4.907  0.1655  0.2769 -0.0648
  823PNCE   C2B 7426   8.569   2.246   5.248 -0.0085 -0.3196  0.2767
  823PNCE   C3B 7427   8.297   2.421   5.398 -0.0122 -0.0001  0.2602
  823PNCE   D4B 7428   7.907   2.671   5.349 -0.2564 -0.0385 -0.2202
  823PNCE   C5B 7429   7.693   2.963   5.486 -0.0060  0.0226 -0.0221
  823PNCE   C6B 7430   7.390   3.245   5.512 -0.2111  0.3537 -0.1106
  824PNCE   AM1 7431   9.346  14.715   4.321  0.1838 -0.2472 -0.3188
  824PNCE   AM2 7432   9.161  15.027   4.303  0.1390  0.2190 -0.3538
  824PNCE   T1A 7433   9.481  14.476   4.613  0.0296 -0.1227 -0.1605
  824PNCE   C2A 7434   9.444  14.359   4.958 -0.0139 -0.3413 -0.0154
  824PNCE   C3A 7435   9.322  14.012   5.233  0.0061 -0.0752 -0.0022
  824PNCE   C1B 7436   8.814  15.081   4.720  0.1593  0.0193  0.0761
  824PNCE   C2B 7437   8.889  15.200   5.083  0.1619  0.1383 -0.1971
  824PNCE   C3B 7438   9.026  15.347   5.502 -0.0357  0.3546  0.0626
  824PNCE   D4B 7439   9.248  15.575   5.687  0.0465 -0.1002 -0.2587
  824PNCE   C5B 7440   9.659  15.514   5.700 -0.0684 -0.0938 -0.2028
  824PNCE   C6B 7441  10.076  15.579   5.964 -0.0417  0.1532  0.4603
  825XCA    COO 7442   4.988   0.331   8.832 -0.3028  0.6769  0.2439
  825XCA     C1 7443   5.033   0.359   8.354  0.1628  0.1291  0.3359
  825XCA     C2 7444   5.029   0.319   7.889  0.0350 -0.0464 -0.1869
  825XCA     C3 7445   5.012   0.331   7.418 -0.2382  0.2360  0.1278
  825XCA     C4 7446   5.013   0.424   6.988 -0.1083  0.0260 -0.3870
  825XCA     C5 7447   5.311   0.695   6.707 -0.0757  0.0768  0.1361
  825XCA     C6 7448   5.719   1.029   6.476  0.0044  0.3291  0.2279
  826XCA    COO 7449   8.525  10.141   5.384  0.0777  0.1784 -0.1142
  826XCA     C1 7450   8.173  10.327   5.603 -0.1722 -0.1132  0.2481
  826XCA     C2 7451   8.311  10.834   5.689 -0.0991  0.1286  0.0402
  826XCA     C3 7452   8.577  10.942   6.097 -0.1553 -0.0598 -0.0368
  826XCA     C4 7453   8.556  11.401   6.336  0.2997 -0.0984  0.0071
  826XCA     C5 7454   8.783  11.868   6.459  0.5259  0.1070  0.0960
  826XCA     C6 7455   8.899  12.316   6.523 -0.1364  0.2048  0.0427
  827XCA    COO 7456   7.935   2.757   8.098  0.1255  0.2179 -0.0314
  827XCA     C1 7457   8.022   2.474   7.699  0.0454 -0.0183 -0.1048
  827XCA     C2 7458   8.024   2.508   7.236  0.1035  0.1787 -0.3443
  827XCA     C3 7459   7.968   2.495   6.818 -0.2524 -0.1028  0.1481
  827XCA     C4 7460   7.623   2.526   6.505 -0.0036  0.1446 -0.1175
  827XCA     C5 7461   7.323   2.341   6.456 -0.0710  0.0593 -0.1104
  827XCA     C6 7462   6.979   2.022   6.433  0.0686  0.0392 -0.0872
  828PNCE   AM1 7463   0.017  14.806   4.550  0.0675  0.0334 -0.3454
  828PNCE   AM2 7464  -0.123  15.069   4.699  0.0918  0.1323  0.0540
  828PNCE   T1A 7465   0.294  14.739   4.860  0.1465  0.2863 -0.1197
  828PNCE   C2A 7466   0.303  14.764   5.291 -0.4173 -0.0507  0.0095
  828PNCE   C3A 7467   0.572  14.634   5.679 -0.0750 -0.0832 -0.0479
  828PNCE   C1B 7468  -0.049  15.121   5.154  0.0526 -0.1335 -0.3318
  828PNCE   C2B 7469   0.120  15.163   5.570 -0.1734 -0.0153 -0.1032
  828PNCE   C3B 7470   0.415  15.100   5.827 -0.1434 -0.0213 -0.2673
  828PNCE   D4B 7471   0.510  15.050   6.235  0.0892 -0.0458 -0.1403
  828PNCE   C5B 7472   0.214  14.840   6.488 -0.0999 -0.2132 -0.1916
  828PNCE   C6B 7473   0.239  14.819   6.919  0.3135 -0.0689  0.0748
  829PNCE   AM1 7474  13.671   1.676   4.397  0.0590 -0.0124 -0.0711
  829PNCE   AM2 7475  13.498   1.338   4.264 -0.0167 -0.2827  0.2510
  829PNCE   T1A 7476  13.639   1.764   4.915 -0.0537 -0.0960 -0.4100
  829PNCE   C2A 7477  13.452   1.476   5.236 -0.0015  0.0924 -0.0854
  829PNCE   C3A 7478  13.440   1.573   5.757 -0.0039  0.1133  0.2427
  829PNCE   C1B 7479  13.403   1.278   4.811 -0.1751 -0.1926 -0.0087
  829PNCE   C2B 7480  13.227   0.904   5.198  0.2584  0.2330 -0.2828
  829PNCE   C3B 7481  12.824   0.831   5.394  0.0112  0.4517  0.1131
  829PNCE   D4B 7482  12.763   0.958   5.830  0.1332  0.4215  0.0444
  829PNCE   C5B 7483  13.014   1.069   6.234  0.0601  0.1671  0.1504
  829PNCE   C6B 7484  13.079   0.808   6.627 -0.2809 -0.1531  0.2421
  830PNCE   AM1 7485   4.637  11.949   5.004 -0.2318 -0.0827  0.0940
  830PNCE   AM2 7486   4.859  12.038   5.250  0.1221 -0.2388  0.1112
  830PNCE   T1A 7487   4.433  11.698   5.321 -0.1634  0.1823 -0.0252
  830PNCE   C2A 7488   4.302  11.669   5.729 -0.1956  0.0657  0.1985
  830PNCE   C3A 7489   4.424  11.407   6.108 -0.0211  0.2585 -0.1646
  830PNCE   C1B 7490   5.043  12.245   5.614 -0.0236 -0.1969 -0.0264
  830PNCE   C2B 7491   5.022  12.515   5.874  0.0716 -0.2845 -0.0920
  830PNCE   C3B 7492   4.907  12.422   6.339  0.1535  0.2764 -0.0931
  830PNCE   D4B 7493   4.837  12.547   6.730  0.0679  0.2012 -0.3368
  830PNCE   C5B 7494   4.796  12.155   7.003  0.1665 -0.1660  0.0906
  830PNCE   C6B 7495   4.534  11.909   7.318 -0.0677  0.2867  0.2959
  831PNCE   AM1 7496   3.320   6.188   5.262 -0.0805  0.2150  0.1107
  831PNCE   AM2 7497   3.396   5.968   5.433 -0.0292  0.3208  0.1206
  831PNCE   T1A 7498   3.357   6.500   5.574 -0.0352  0.1256  0.1238
  831PNCE   C2A 7499   3.346   6.707   5.914  0.0628 -0.2002 -0.0270
  831PNCE   C3A 7500   3.474   6.831   6.322 -0.1362  0.1361 -0.1179
  831PNCE   C1B 7501   3.241   6.021   5.852 -0.1733 -0.5836  0.2224
  831PNCE   C2B 7502   3.232   6.208   6.170  0.0610  0.2495  0.1258
  831PNCE   C3B 7503   3.297   6.391   6.543  0.1707  0.0448 -0.3228
  831PNCE   D4B 7504   3.569   6.662   6.754 -0.1545 -0.4531  0.2201
  831PNCE   C5B 7505   3.799   6.540   7.135 -0.1598 -0.0931  0.0196
  831PNCE   C6B 7506   4.220   6.554   7.268  0.0336 -0.4144  0.2281
  832XCA    COO 7507   2.300  11.678   5.046  0.3003  0.0199  0.2377
  832XCA     C1 7508   2.339  11.449   5.374 -0.3905 -0.0266 -0.3241
  832XCA     C2 7509   2.539  11.477   5.845  0.3410  0.0285  0.3234
  832XCA     C3 7510   2.638  11.472   6.273 -0.0771  0.1564 -0.0329
  832XCA     C4 7511   2.436  11.322   6.586 -0.2872  0.0910  0.0693
  832XCA     C5 7512   2.235  11.176   7.050 -0.1459  0.2146 -0.1569
  832XCA     C6 7513   1.856  11.121   7.220 -0.0456  0.2235  0.3905
  833PNCE   AM1 7514  15.628   5.691   5.277  0.0099 -0.2664 -0.1643
  833PNCE   AM2 7515  15.359   5.593   5.211 -0.0204 -0.0441  0.0294
  833PNCE   T1A 7516  15.670   5.699   5.772 -0.2786 -0.1853  0.1821
  833PNCE   C2A 7517  15.554   5.864   6.165  0.2179  0.0555 -0.1249
  833PNCE   C3A 7518  15.451   5.872   6.553  0.0846 -0.0209 -0.1342
  833PNCE   C1B 7519  15.527   5.319   5.548  0.1715  0.1266  0.1651
  833PNCE   C2B 7520  15.436   5.026   5.873 -0.1380 -0.1320 -0.4869
  833PNCE   C3B 7521  15.360   4.922   6.326 -0.0537  0.1763  0.2584
  833PNCE   D4B 7522  15.699   4.847   6.657  0.3720 -0.0358 -0.1781
  833PNCE   C5B 7523  15.925   4.447   6.821  0.1318  0.1120 -0.1478
  833PNCE   C6B 7524  16.126   4.064   6.740  0.4627 -0.0625  0.1592
  834PNCE   AM1 7525  12.306   7.414   4.889 -0.1172 -0.1750 -0.0167
  834PNCE   AM2 7526  12.280   7.748   4.873 -0.0726 -0.0680  0.2527
  834PNCE   T1A 7527  12.368   7.072   5.162 -0.1365  0.0099 -0.2517
  834PNCE   C2A 7528  12.526   6.908   5.608  0.1660 -0.2195 -0.1629
  834PNCE   C3A 7529  12.232   7.111   5.951  0.1332  0.0335  0.0165
  834PNCE   C1B 7530  12.225   7.684   5.332 -0.0822  0.2434  0.0508
  834PNCE   C2B 7531  12.310   7.828   5.731 -0.1533 -0.0180 -0.0950
  834PNCE   C3B 7532  12.220   7.768   6.164 -0.0543 -0.0293  0.2290
  834PNCE   D4B 7533  11.809   7.748   6.329 -0.1544  0.0452  0.0034
  834PNCE   C5B 7534  11.470   7.458   6.339 -0.2559 -0.0715 -0.0327
  834PNCE   C6B 7535  11.261   7.113   6.322 -0.0469  0.1409 -0.0250
  835CHOL   ROH 7536   1.746   8.455   9.329 -0.5024  0.0010  0.0647
  835CHOL    R1 7537   1.812   8.301   9.101 -0.2543  0.1796  0.0111
  835CHOL    R2 7538   1.638   8.117   8.990  0.0423 -0.0834 -0.0378
  835CHOL    R3 7539   1.683   8.260   8.763 -0.2079  0.0700  0.0066
  835CHOL    R4 7540   1.556   8.013   8.671  0.2566 -0.1459 -0.0736
  835CHOL    R5 7541   1.744   8.096   8.600  0.1109  0.2285 -0.0381
  835CHOL    C1 7542   1.550   8.086   8.272  0.1466 -0.0383 -0.0528
  835CHOL    C2 7543   1.342   8.131   7.978  0.3271  0.1236  0.0811
  836CHOL   ROH 7544   5.700   6.967   9.119 -0.2732 -0.0668  0.1078
  836CHOL    R1 7545   5.629   6.969   8.845 -0.1197 -0.0293  0.0672
  836CHOL    R2 7546   5.719   6.779   8.666 -0.0253 -0.0092  0.0923
  836CHOL    R3 7547   5.454   6.748   8.616  0.0012  0.0057 -0.0605
  836CHOL    R4 7548   5.586   6.667   8.367  0.1323  0.1383 -0.0349
  836CHOL    R5 7549   5.428   6.816   8.387  0.1163  0.1217 -0.0400
  836CHOL    C1 7550   5.260   6.573   8.146  0.2490  0.2381 -0.2522
  836CHOL    C2 7551   5.455   6.441   7.836  0.3390  0.1485  0.3471
  837PNCE   AM1 7552   6.134  14.633   5.550  0.0981 -0.2883  0.0062
  837PNCE   AM2 7553   5.895  14.920   5.540  0.1321 -0.2037  0.1403
  837PNCE   T1A 7554   6.064  14.217   5.593 -0.0787 -0.2041 -0.1729
  837PNCE   C2A 7555   6.025  13.822   5.817 -0.1970  0.0027  0.1353
  837PNCE   C3A 7556   5.942  13.358   5.870 -0.1873 -0.1715 -0.0216
  837PNCE   C1B 7557   6.147  15.079   5.893  0.2445  0.2290 -0.1903
  837PNCE   C2B 7558   6.388  15.276   6.223  0.3312 -0.0587 -0.2591
  837PNCE   C3B 7559   6.417  15.554   6.556 -0.1501 -0.3840  0.1201
  837PNCE   D4B 7560   6.436  15.702   6.906  0.0436  0.2516 -0.3708
  837PNCE   C5B 7561   6.691  15.768   7.263 -0.1564 -0.0096 -0.2876
  837PNCE   C6B 7562   6.992  16.041   7.395 -0.0970 -0.0722  0.0715
  838PNCE   AM1 7563   8.562   3.989   4.403 -0.1609  0.3013  0.1097
  838PNCE   AM2 7564   8.802   4.044   4.237  0.0454 -0.0097 -0.2498
  838PNCE   T1A 7565   8.166   3.831   4.700 -0.0520 -0.0296  0.1782
  838PNCE   C2A 7566   7.694   3.772   4.832  0.1718 -0.1108 -0.0644
  838PNCE   C3A 7567   7.365   4.025   5.053  0.0914  0.0272  0.0223
  838PNCE   C1B 7568   8.998   4.276   4.708 -0.0927  0.1480  0.0565
  838PNCE   C2B 7569   9.123   4.082   5.005  0.0362  0.0153  0.0425
  838PNCE   C3B 7570   8.959   3.783   5.353  0.1240  0.2133  0.2053
  838PNCE   D4B 7571   8.918   3.706   5.758 -0.0582  0.2044  0.0320
  838PNCE   C5B 7572   9.119   3.892   6.088 -0.0886  0.1270 -0.0938
  838PNCE   C6B 7573   9.290   4.131   6.515  0.3646 -0.3489 -0.0077
  839PNCE   AM1 7574  11.840   6.274   5.409 -0.1203 -0.2198 -0.1203
  839PNCE   AM2 7575  11.787   6.066   5.152  0.1365 -0.1840 -0.3137
  839PNCE   T1A 7576  11.594   6.268   5.771 -0.3094 -0.0122 -0.2986
  839PNCE   C2A 7577  11.753   6.155   6.152 -0.2271  0.0165  0.0513
  839PNCE   C3A 7578  11.895   6.199   6.577  0.1883 -0.0348 -0.0496
  839PNCE   C1B 7579  11.416   6.029   5.402  0.1370  0.1452 -0.3295
  839PNCE   C2B 7580  11.156   5.777   5.589  0.1624 -0.0537  0.1127
  839PNCE   C3B 7581  11.059   5.484   5.631  0.0507  0.0034 -0.1663
  839PNCE   D4B 7582  10.947   5.001   5.395  0.0610  0.0078 -0.2628
  839PNCE   C5B 7583  11.289   4.845   5.339 -0.1332  0.0079 -0.0517
  839PNCE   C6B 7584  11.634   4.714   5.575  0.2045 -0.0930 -0.0560
  840XCA    COO 7585   6.940   9.784   5.088 -0.2617  0.3487 -0.1314
  840XCA     C1 7586   6.773   9.823   5.551 -0.1330  0.0117 -0.0718
  840XCA     C2 7587   6.884   9.936   6.048  0.1495  0.0269 -0.2637
  840XCA     C3 7588   6.846  10.017   6.489 -0.1056 -0.0150 -0.1817
  840XCA     C4 7589   6.896   9.795   6.883  0.2514  0.4088 -0.0526
  840XCA     C5 7590   6.742   9.438   6.872  0.0137 -0.0328  0.0476
  840XCA     C6 7591   6.818   9.034   6.532 -0.1814 -0.0615 -0.0791
  841CHOL   ROH 7592   7.125   1.085   7.876 -0.2022 -0.0316 -0.0242
  841CHOL    R1 7593   7.106   1.069   7.594 -0.1336  0.0982 -0.0376
  841CHOL    R2 7594   6.924   1.218   7.448 -0.1845  0.0753 -0.0025
  841CHOL    R3 7595   7.146   1.296   7.312 -0.1949  0.2624  0.0854
  841CHOL    R4 7596   6.948   1.237   7.104 -0.0417  0.0424  0.0053
  841CHOL    R5 7597   7.150   1.155   7.119  0.0284  0.2352  0.1094
  841CHOL    C1 7598   7.171   1.321   6.776  0.0317  0.1989  0.0924
  841CHOL    C2 7599   7.068   1.327   6.376 -0.1270 -0.1132 -0.1803
  842PNCE   AM1 7600   4.959  13.653   4.862 -0.1152  0.2499 -0.1510
  842PNCE   AM2 7601   4.770  13.391   4.814 -0.3269  0.0876 -0.1895
  842PNCE   T1A 7602   4.988  13.597   5.338  0.2334  0.0235 -0.1348
  842PNCE   C2A 7603   4.794  13.357   5.579  0.2566 -0.0719 -0.2774
  842PNCE   C3A 7604   4.566  13.272   6.055 -0.4195  0.2546 -0.3898
  842PNCE   C1B 7605   4.538  13.591   5.115  0.0370  0.1806  0.1066
  842PNCE   C2B 7606   4.308  13.554   5.564 -0.0493  0.0489 -0.0644
  842PNCE   C3B 7607   4.116  13.490   5.893 -0.1090 -0.0492 -0.2093
  842PNCE   D4B 7608   4.133  13.326   6.304 -0.0811 -0.0753  0.2703
  842PNCE   C5B 7609   3.981  13.573   6.626 -0.1037 -0.2009 -0.1359
  842PNCE   C6B 7610   3.849  13.827   6.863 -0.1676  0.1717 -0.0925
  843CHOL   ROH 7611   3.158   3.626   5.302  0.0421 -0.0171  0.0572
  843CHOL    R1 7612   3.125   3.435   5.508  0.1274 -0.0576  0.0356
  843CHOL    R2 7613   2.933   3.236   5.496  0.0895 -0.0303  0.0982
  843CHOL    R3 7614   3.147   3.073   5.538  0.0913 -0.0673 -0.0574
  843CHOL    R4 7615   2.912   2.900   5.575  0.0724  0.0536  0.4594
  843CHOL    R5 7616   3.077   2.928   5.716  0.2942  0.1330  0.1920
  843CHOL    C1 7617   3.100   2.552   5.661  0.0643  0.0678  0.5236
  843CHOL    C2 7618   3.142   2.662   6.094  0.0447  0.2717 -0.0458
  844XCA    COO 7619   5.519   9.270   9.219  0.1890  0.2144  0.2110
  844XCA     C1 7620   5.344   9.311   8.722 -0.1198  0.1407 -0.1434
  844XCA     C2 7621   5.399   9.441   8.324  0.3053 -0.1739  0.0415
  844XCA     C3 7622   5.744   9.566   8.003 -0.0527 -0.2943  0.2575
  844XCA     C4 7623   5.931   9.259   7.710 -0.1884  0.0089 -0.2650
  844XCA     C5 7624   6.111   9.020   7.395 -0.0693 -0.0142  0.0234
  844XCA     C6 7625   6.319   9.136   6.964  0.2167  0.0021 -0.0963
  845PNCE   AM1 7626  11.660   6.125   8.347  0.0608 -0.2263  0.0381
  845PNCE   AM2 7627  11.682   6.272   8.750 -0.0011 -0.0237  0.0370
  845PNCE   T1A 7628  11.936   6.019   8.141 -0.1165  0.0391  0.2190
  845PNCE   C2A 7629  12.172   6.041   7.744  0.1567 -0.0639 -0.0437
  845PNCE   C3A 7630  12.274   5.885   7.530  0.2828  0.3185 -0.0210
  845PNCE   C1B 7631  12.157   6.226   8.531 -0.0100 -0.0976  0.0923
  845PNCE   C2B 7632  12.377   6.145   8.195 -0.0202  0.1502 -0.3006
  845PNCE   C3B 7633  12.678   6.321   7.892  0.1492 -0.4347 -0.1043
  845PNCE   D4B 7634  12.923   6.220   7.602  0.1441  0.1890  0.1590
  845PNCE   C5B 7635  12.967   5.771   7.418  0.0927 -0.0474  0.0700
  845PNCE   C6B 7636  13.119   5.449   7.465 -0.1324 -0.0017  0.1069
  846CHOL   ROH 7637  15.363  12.638   8.233  0.3065  0.2070 -0.0587
  846CHOL    R1 7638  15.230  12.559   7.996  0.2132  0.0990  0.0279
  846CHOL    R2 7639  15.143  12.741   7.807  0.1032  0.0169 -0.0036
  846CHOL    R3 7640  15.290  12.586   7.638  0.0525 -0.0248 -0.0087
  846CHOL    R4 7641  15.146  12.773   7.463 -0.1331 -0.1840 -0.0268
  846CHOL    R5 7642  15.147  12.555   7.448 -0.0594 -0.1921  0.1006
  846CHOL    C1 7643  15.285  12.647   7.104 -0.3184 -0.3400 -0.0453
  846CHOL    C2 7644  15.326  12.737   6.755 -0.0830  0.0538 -0.0457
  847XCA    COO 7645  11.541  10.255   4.265 -0.2862 -0.4256 -0.2056
  847XCA     C1 7646  11.244  10.399   4.596 -0.0063 -0.2217  0.0715
  847XCA     C2 7647  11.142  10.817   4.806 -0.3220  0.1235  0.1929
  847XCA     C3 7648  11.337  11.166   4.968  0.2099  0.1283  0.3804
  847XCA     C4 7649  11.579  11.043   5.206  0.1334 -0.1575 -0.0157
  847XCA     C5 7650  12.013  11.099   5.405  0.1715  0.2058 -0.1128
  847XCA     C6 7651  12.492  11.243   5.396 -0.2446 -0.1169  0.2497
  848CHOL   ROH 7652   0.134  12.817   7.014  0.0620 -0.0314 -0.2401
  848CHOL    R1 7653   0.086  12.955   6.771  0.0206 -0.0045 -0.2157
  848CHOL    R2 7654  -0.133  12.902   6.611 -0.0547  0.0793 -0.1342
  848CHOL    R3 7655  -0.175  13.170   6.636  0.0465  0.0944 -0.1118
  848CHOL    R4 7656  -0.234  13.111   6.355 -0.2002  0.0955 -0.0666
  848CHOL    R5 7657  -0.095  13.262   6.430 -0.0904  0.0590 -0.1844
  848CHOL    C1 7658  -0.331  13.484   6.229 -0.1899  0.1192 -0.0062
  848CHOL    C2 7659  -0.405  13.731   6.217 -0.0818  0.1196 -0.0914
  849CHOL   ROH 7660  14.866  12.976   5.607  0.0767  0.0867  0.2676
  849CHOL    R1 7661  14.633  13.073   5.479  0.2819  0.2151 -0.0182
  849CHOL    R2 7662  14.389  13.091   5.607  0.0240 -0.0819 -0.4411
  849CHOL    R3 7663  14.402  13.350   5.526  0.1015  0.0619  0.0050
  849CHOL    R4 7664  14.116  13.285   5.522  0.1082  0.0374 -0.4409
  849CHOL    R5 7665  14.232  13.369   5.358  0.2974  0.3270 -0.1703
  849CHOL    C1 7666  13.969  13.642   5.397  0.2300  0.2419 -0.0218
  849CHOL    C2 7667  13.772  13.837   5.602  0.0353 -0.0058 -0.1599
  850CHOL   ROH 7668   9.341  13.162   4.769  0.0366 -0.0766  0.0701
  850CHOL    R1 7669   9.343  13.243   5.040  0.2147 -0.2541  0.1247
  850CHOL    R2 7670   9.576  13.309   5.175  0.2682  0.0807 -0.1167
  850CHOL    R3 7671   9.442  13.540   5.227 -0.0992 -0.1894  0.1937
  850CHOL    R4 7672   9.658  13.532   5.425  0.0294 -0.0254  0.0607
  850CHOL    R5 7673   9.446  13.558   5.466  0.0033 -0.4252  0.2120
  850CHOL    C1 7674   9.581  13.879   5.620 -0.4544 -0.3407  0.4554
  850CHOL    C2 7675   9.634  14.141   5.834  0.0129 -0.1970  0.2978
  851PNCE   AM1 7676   5.750  14.362   5.215 -0.0486 -0.3267 -0.3876
  851PNCE   AM2 7677   5.972  14.146   4.943  0.5031 -0.2352  0.1082
  851PNCE   T1A 7678   5.582  14.503   5.550 -0.3033 -0.1530 -0.2705
  851PNCE   C2A 7679   5.706  14.732   5.922  0.0246  0.3161 -0.1802
  851PNCE   C3A 7680   6.084  14.672   6.263 -0.0128 -0.0924 -0.2029
  851PNCE   C1B 7681   5.999  13.918   5.231  0.0854  0.1825  0.2099
  851PNCE   C2B 7682   5.915  13.481   5.344 -0.1498  0.1895 -0.1416
  851PNCE   C3B 7683   5.674  13.019   5.479  0.1002  0.0656  0.1648
  851PNCE   D4B 7684   5.754  12.814   5.829 -0.1627  0.3209 -0.0935
  851PNCE   C5B 7685   5.745  13.088   6.205  0.0202 -0.0057  0.1243
  851PNCE   C6B 7686   5.914  13.199   6.557  0.0886  0.1017 -0.1309
  852XCA    COO 7687   5.384   3.109   8.522 -0.0276 -0.3465  0.2570
  852XCA     C1 7688   5.089   3.113   8.187  0.1492  0.0563  0.2239
  852XCA     C2 7689   5.197   3.235   7.871  0.0172  0.2317 -0.0609
  852XCA     C3 7690   5.452   3.299   7.413 -0.1512 -0.2101 -0.1080
  852XCA     C4 7691   5.560   3.346   6.968 -0.3890  0.0123 -0.0809
  852XCA     C5 7692   5.694   3.200   6.630 -0.0931 -0.1439 -0.0894
  852XCA     C6 7693   5.753   3.436   6.166  0.1379  0.4115 -0.1148
  853PNCE   AM1 7694   3.988  13.489   5.153 -0.0669  0.3241 -0.1545
  853PNCE   AM2 7695   4.147  13.069   5.169 -0.3045 -0.2248  0.0693
  853PNCE   T1A 7696   3.779  13.622   5.557 -0.1672 -0.0565  0.2710
  853PNCE   C2A 7697   3.568  13.563   5.933  0.3181 -0.1171  0.3255
  853PNCE   C3A 7698   3.637  13.213   6.269  0.1977  0.1908  0.1134
  853PNCE   C1B 7699   4.190  13.085   5.562  0.2318  0.2103  0.3291
  853PNCE   C2B 7700   4.225  12.965   5.913 -0.1671  0.0288  0.2852
  853PNCE   C3B 7701   4.179  12.835   6.275 -0.1760  0.1627 -0.2246
  853PNCE   D4B 7702   3.850  12.775   6.624  0.0169 -0.1334  0.1349
  853PNCE   C5B 7703   4.069  12.724   7.027 -0.1355 -0.1218  0.1307
  853PNCE   C6B 7704   4.357  12.426   7.300 -0.1942 -0.0711 -0.1437
  854CHOL   ROH 7705   3.219   2.146   8.650 -0.0208 -0.0625 -0.0793
  854CHOL    R1 7706   3.277   2.327   8.441  0.1311 -0.0096  0.0061
  854CHOL    R2 7707   3.522   2.332   8.313  0.1441 -0.1442  0.0170
  854CHOL    R3 7708   3.369   2.304   8.089  0.1257  0.0778 -0.0001
  854CHOL    R4 7709   3.637   2.368   7.989  0.1915 -0.1611  0.0324
  854CHOL    R5 7710   3.452   2.472   7.940  0.2989  0.0399  0.0549
  854CHOL    C1 7711   3.562   2.363   7.591  0.2018  0.0375  0.0253
  854CHOL    C2 7712   3.559   2.493   7.156 -0.4513 -0.1911  0.5812
  855PNCE   AM1 7713   5.083  11.182   5.477 -0.3227 -0.0245  0.1020
  855PNCE   AM2 7714   5.257  10.993   5.426 -0.3395  0.1107  0.4353
  855PNCE   T1A 7715   5.132  11.312   5.908 -0.1861  0.2087  0.2930
  855PNCE   C2A 7716   5.235  11.222   6.247  0.2025  0.1790  0.0453
  855PNCE   C3A 7717   5.252  10.985   6.605 -0.3785 -0.4097 -0.0475
  855PNCE   C1B 7718   5.488  10.967   5.803  0.0684  0.0685 -0.1010
  855PNCE   C2B 7719   5.580  10.794   6.236 -0.2179 -0.4596 -0.2040
  855PNCE   C3B 7720   5.771  10.762   6.709 -0.0805 -0.0066  0.3536
  855PNCE   D4B 7721   5.811  10.902   7.131  0.0540 -0.1106 -0.2139
  855PNCE   C5B 7722   5.824  10.988   7.562 -0.0895 -0.2984  0.0143
  855PNCE   C6B 7723   5.905  10.882   8.014  0.2045  0.1912  0.1776
  856CHOL   ROH 7724  12.626  13.171   4.119  0.0967 -0.0647  0.1388
  856CHOL    R1 7725  12.472  13.281   4.330  0.0925  0.0092  0.0964
  856CHOL    R2 7726  12.477  13.180   4.586 -0.0542 -0.0159  0.0864
  856CHOL    R3 7727  12.538  13.437   4.652  0.0762 -0.0574  0.1331
  856CHOL    R4 7728  12.470  13.309   4.907 -0.1913 -0.0243  0.0876
  856CHOL    R5 7729  12.383  13.492   4.826 -0.0125  0.0410  0.0286
  856CHOL    C1 7730  12.523  13.624   5.156 -0.1487 -0.0681  0.1323
  856CHOL    C2 7731  12.326  13.578   5.539  0.0643  0.0650  0.3671
  857CHOL   ROH 7732  13.187  10.215   8.055  0.0866 -0.0455  0.1478
  857CHOL    R1 7733  13.366  10.230   7.835  0.0304 -0.0670  0.1009
  857CHOL    R2 7734  13.357  10.052   7.624 -0.1746  0.0517  0.0075
  857CHOL    R3 7735  13.339  10.279   7.476 -0.0442  0.1471  0.1341
  857CHOL    R4 7736  13.394  10.067   7.281 -0.1805  0.2202  0.0130
  857CHOL    R5 7737  13.505  10.253   7.306 -0.0666  0.1405  0.1123
  857CHOL    C1 7738  13.398  10.289   6.942 -0.0616  0.4079  0.1351
  857CHOL    C2 7739  13.455  10.419   6.553 -0.0463 -0.2171  0.0831
  858CHOL   ROH 7740  10.015   8.298   5.323  0.0833 -0.1289  0.0287
  858CHOL    R1 7741  10.185   8.407   5.521  0.0471 -0.2015  0.0993
  858CHOL    R2 7742  10.091   8.566   5.727  0.0408 -0.0892  0.0061
  858CHOL    R3 7743  10.219   8.384   5.883 -0.1727 -0.1397  0.1262
  858CHOL    R4 7744  10.251   8.638   6.025  0.0391 -0.0924  0.0082
  858CHOL    R5 7745  10.410   8.501   5.967 -0.0766 -0.2790  0.1117
  858CHOL    C1 7746  10.464   8.509   6.344 -0.1624 -0.1416  0.1222
  858CHOL    C2 7747  10.371   8.323   6.685  0.3368 -0.2506  0.1536
  859CHOL   ROH 7748   7.736  13.188   7.912  0.2206  0.0705  0.0528
  859CHOL    R1 7749   7.873  13.101   7.680  0.2992  0.1627  0.0657
  859CHOL    R2 7750   7.758  12.932   7.494  0.4343  0.0851  0.0663
  859CHOL    R3 7751   7.828  13.129   7.320  0.3138  0.1229  0.0572
  859CHOL    R4 7752   7.754  12.901   7.150  0.5349  0.0085  0.0708
  859CHOL    R5 7753   7.941  13.013   7.143  0.4568  0.1719  0.1013
  859CHOL    C1 7754   7.817  13.067   6.786  0.4802 -0.0004  0.0649
  859CHOL    C2 7755   7.989  13.069   6.287 -0.0899  0.2257 -0.3076
  860PNCE   AM1 7756  15.440  10.013   4.719 -0.1002  0.2558 -0.3333
  860PNCE   AM2 7757  15.779  10.202   4.694  0.1772  0.1987  0.1332
  860PNCE   T1A 7758  15.455   9.838   5.125 -0.1678  0.0140  0.1576
  860PNCE   C2A 7759  15.586  10.051   5.480  0.0718  0.1719 -0.2028
  860PNCE   C3A 7760  15.784  10.333   5.747  0.1977  0.1729  0.1795
  860PNCE   C1B 7761  16.062  10.563   4.873 -0.0572  0.4272 -0.0936
  860PNCE   C2B 7762  16.087  10.971   4.978  0.1120  0.2125  0.1265
  860PNCE   C3B 7763  16.321  11.189   5.328 -0.3637 -0.2484 -0.1264
  860PNCE   D4B 7764  16.332  11.414   5.775 -0.2150  0.0583 -0.1605
  860PNCE   C5B 7765  15.846  11.540   5.760  0.1559  0.0398  0.3088
  860PNCE   C6B 7766  15.480  11.790   5.941 -0.1224  0.0027 -0.2094
  861PNCE   AM1 7767  15.466   3.584   4.920 -0.1891 -0.0047 -0.0189
  861PNCE   AM2 7768  15.060   3.633   4.776 -0.2381 -0.0493 -0.0214
  861PNCE   T1A 7769  15.551   3.556   5.355 -0.1292  0.0599  0.0973
  861PNCE   C2A 7770  15.537   3.628   5.720 -0.0282  0.0504  0.0744
  861PNCE   C3A 7771  15.745   3.494   6.202  0.1852  0.4606  0.1726
  861PNCE   C1B 7772  14.985   3.434   5.158 -0.2175 -0.2793 -0.0852
  861PNCE   C2B 7773  14.813   3.063   5.401 -0.1295  0.2011  0.1545
  861PNCE   C3B 7774  15.001   2.864   5.726  0.0728  0.0673  0.1408
  861PNCE   D4B 7775  15.189   2.912   5.955 -0.0815  0.1256 -0.1519
  861PNCE   C5B 7776  15.315   3.209   6.201 -0.2547 -0.3797 -0.2495
  861PNCE   C6B 7777  15.263   3.665   6.182  0.0243  0.2067 -0.1566
  862XCA    COO 7778   1.972   7.819   9.900 -0.4476 -0.1865  0.0971
  862XCA     C1 7779   2.073   7.469   9.634 -0.2637  0.0539 -0.0476
  862XCA     C2 7780   1.851   7.345   9.335 -0.1136 -0.2014  0.2020
  862XCA     C3 7781   1.678   7.064   9.095 -0.1433  0.0601  0.4186
  862XCA     C4 7782   1.777   6.932   8.730 -0.1824 -0.0113  0.2016
  862XCA     C5 7783   1.829   7.155   8.324 -0.2568  0.1464 -0.0905
  862XCA     C6 7784   2.058   7.381   7.987  0.1455  0.1319  0.0571
  863CHOL   ROH 7785   0.830   0.191   4.806  0.0525 -0.3590  0.0798
  863CHOL    R1 7786   0.815   0.325   5.055  0.0185 -0.2381  0.0133
  863CHOL    R2 7787   0.712   0.581   5.080  0.0351 -0.2158 -0.1278
  863CHOL    R3 7788   0.551   0.463   5.264 -0.0084 -0.1149 -0.1007
  863CHOL    R4 7789   0.546   0.747   5.333  0.0067 -0.0838 -0.2320
  863CHOL    R5 7790   0.595   0.583   5.467 -0.0329 -0.0267 -0.1479
  863CHOL    C1 7791   0.299   0.733   5.654 -0.0508  0.0878 -0.2673
  863CHOL    C2 7792   0.520   0.695   6.089  0.0496 -0.4002 -0.3361
  864PNCE   AM1 7793   4.688   2.161   4.976  0.0852  0.2768 -0.1601
  864PNCE   AM2 7794   4.746   1.935   4.789  0.1186  0.2763  0.1102
  864PNCE   T1A 7795   4.780   2.503   5.122 -0.1589  0.1796  0.0454
  864PNCE   C2A 7796   4.775   2.885   5.419 -0.0892 -0.0601 -0.1773
  864PNCE   C3A 7797   4.528   3.227   5.677  0.0546 -0.1118  0.1768
  864PNCE   C1B 7798   4.912   1.759   5.121 -0.0172  0.1656 -0.1278
  864PNCE   C2B 7799   4.956   1.490   5.389  0.1095  0.2122  0.2054
  864PNCE   C3B 7800   5.211   1.262   5.522 -0.1949 -0.0777 -0.0299
  864PNCE   D4B 7801   5.197   1.192   5.898  0.3272 -0.0281  0.1297
  864PNCE   C5B 7802   5.037   0.711   6.036 -0.1438  0.2477  0.1457
  864PNCE   C6B 7803   5.010   0.447   6.305 -0.0476 -0.1199 -0.0342
  865PNCE   AM1 7804   9.326  15.303   4.759 -0.0072 -0.1416 -0.1045
  865PNCE   AM2 7805   9.587  15.164   4.546 -0.0338 -0.0164  0.0357
  865PNCE   T1A 7806   9.441  15.216   5.191 -0.0253 -0.3014 -0.0259
  865PNCE   C2A 7807   9.409  15.037   5.631 -0.0633 -0.0169  0.0319
  865PNCE   C3A 7808   9.634  14.670   5.803  0.0237 -0.2389  0.0975
  865PNCE   C1B 7809   9.754  14.966   4.803 -0.0116 -0.0690  0.1771
  865PNCE   C2B 7810   9.646  14.755   5.234 -0.0572 -0.3440 -0.0409
  865PNCE   C3B 7811   9.378  14.451   5.429 -0.3354 -0.0553 -0.1672
  865PNCE   D4B 7812   9.222  14.371   5.892  0.1376  0.0465  0.1696
  865PNCE   C5B 7813   9.144  14.757   6.026 -0.0380 -0.0628  0.1252
  865PNCE   C6B 7814   9.084  14.909   6.483 -0.2932  0.1461  0.1374
  866PNCE   AM1 7815   1.747   4.121   5.155 -0.2315 -0.1249  0.0477
  866PNCE   AM2 7816   1.812   3.731   5.153  0.0667 -0.0857 -0.1684
  866PNCE   T1A 7817   2.001   4.338   5.412 -0.0593  0.3049 -0.0896
  866PNCE   C2A 7818   2.108   4.288   5.886 -0.1327 -0.2478 -0.0933
  866PNCE   C3A 7819   1.943   4.366   6.281 -0.2404  0.0418  0.0477
  866PNCE   C1B 7820   2.122   3.777   5.428 -0.6469 -0.2389 -0.3364
  866PNCE   C2B 7821   2.469   3.617   5.831 -0.1011  0.1216 -0.2926
  866PNCE   C3B 7822   2.789   3.375   6.066  0.0154 -0.2551  0.1658
  866PNCE   D4B 7823   2.947   3.074   6.296  0.0558 -0.1929  0.1703
  866PNCE   C5B 7824   3.460   3.018   6.353 -0.4421 -0.1180 -0.1418
  866PNCE   C6B 7825   3.945   2.873   6.195 -0.2341  0.1054 -0.1365
  867CHOL   ROH 7826  13.083   3.112   5.328 -0.2327  0.1234  0.1098
  867CHOL    R1 7827  13.164   3.151   5.596 -0.0278  0.1546  0.0457
  867CHOL    R2 7828  13.261   3.393   5.688 -0.1513  0.2293 -0.0064
  867CHOL    R3 7829  13.064   3.364   5.874  0.0320  0.0314  0.1611
  867CHOL    R4 7830  13.216   3.599   5.962 -0.3099  0.3666 -0.1342
  867CHOL    R5 7831  13.169   3.422   6.081  0.0839  0.3756  0.0401
  867CHOL    C1 7832  13.005   3.692   6.296 -0.2301  0.2609 -0.0514
  867CHOL    C2 7833  13.131   3.998   6.469 -0.1849 -0.1431  0.0511
  868PNCE   AM1 7834  12.675   5.171   4.983  0.2007 -0.3018 -0.1365
  868PNCE   AM2 7835  12.407   5.122   4.946  0.2891  0.4735  0.0765
  868PNCE   T1A 7836  13.141   5.143   5.298  0.1654 -0.0390  0.4439
  868PNCE   C2A 7837  13.396   5.385   5.617 -0.2648 -0.2656  0.2723
  868PNCE   C3A 7838  13.738   5.499   5.794  0.1576  0.0311  0.0179
  868PNCE   C1B 7839  12.549   4.956   5.406 -0.0997 -0.0754 -0.1433
  868PNCE   C2B 7840  12.886   4.834   5.629 -0.4256  0.3213 -0.1763
  868PNCE   C3B 7841  13.210   4.927   5.820 -0.0061  0.1261  0.3099
  868PNCE   D4B 7842  13.303   5.313   6.138 -0.0441  0.0972  0.0889
  868PNCE   C5B 7843  13.025   5.372   6.480 -0.1099  0.0107 -0.0760
  868PNCE   C6B 7844  12.624   5.439   6.593  0.1677 -0.1834 -0.3577
  869PNCE   AM1 7845   6.401   8.510   4.836 -0.2655  0.0260  0.1063
  869PNCE   AM2 7846   6.680   8.573   5.051  0.1743 -0.1518 -0.1006
  869PNCE   T1A 7847   6.509   8.140   5.230  0.1190  0.2070  0.0233
  869PNCE   C2A 7848   6.498   8.036   5.616 -0.1852  0.1403  0.1674
  869PNCE   C3A 7849   6.536   8.088   6.079  0.1352  0.2028  0.1686
  869PNCE   C1B 7850   6.637   8.555   5.566  0.1290  0.5385  0.2538
  869PNCE   C2B 7851   6.310   8.465   5.837 -0.2838 -0.2093 -0.1760
  869PNCE   C3B 7852   5.972   8.543   6.196  0.4543  0.1947 -0.2162
  869PNCE   D4B 7853   5.575   8.277   6.382 -0.0323 -0.2097  0.1166
  869PNCE   C5B 7854   5.619   7.805   6.599  0.0750 -0.2159 -0.2028
  869PNCE   C6B 7855   5.945   7.517   6.625 -0.1503 -0.1262 -0.0024
  870XCA    COO 7856   0.444   6.974   9.357 -0.0230 -0.4326 -0.0448
  870XCA     C1 7857   0.292   7.122   8.988  0.1522  0.1168  0.2658
  870XCA     C2 7858   0.220   7.227   8.603  0.0901 -0.0376 -0.0302
  870XCA     C3 7859   0.308   7.257   8.145 -0.0957 -0.1815  0.0748
  870XCA     C4 7860   0.203   6.916   7.877  0.1297  0.2333 -0.0822
  870XCA     C5 7861   0.229   6.471   7.723  0.2080  0.2455 -0.0353
  870XCA     C6 7862   0.104   6.078   7.728 -0.2691 -0.0065  0.2984
  871CHOL   ROH 7863  14.589  14.641   5.023  0.2630  0.0968  0.0730
  871CHOL    R1 7864  14.529  14.706   5.292 -0.0370  0.1378  0.0000
  871CHOL    R2 7865  14.271  14.734   5.384 -0.1592 -0.2823 -0.1927
  871CHOL    R3 7866  14.350  14.550   5.568  0.0570 -0.0431 -0.0389
  871CHOL    R4 7867  14.125  14.689   5.694 -0.2520 -0.3363 -0.2433
  871CHOL    R5 7868  14.324  14.661   5.778 -0.2414  0.0480 -0.1175
  871CHOL    C1 7869  14.115  14.491   6.047 -0.1032 -0.1432 -0.1284
  871CHOL    C2 7870  13.974  14.567   6.449 -0.3583 -0.2626 -0.2527
  872CHOL   ROH 7871   6.536   8.916   5.269  0.0300  0.0307  0.0722
  872CHOL    R1 7872   6.746   8.984   5.446 -0.0239  0.0988  0.1128
  872CHOL    R2 7873   6.712   8.999   5.720 -0.0518 -0.0321  0.1230
  872CHOL    R3 7874   6.920   8.825   5.723  0.0592  0.0989  0.0593
  872CHOL    R4 7875   6.947   8.976   5.972 -0.2210 -0.1952  0.2666
  872CHOL    R5 7876   7.100   8.948   5.821 -0.0916  0.0934  0.3457
  872CHOL    C1 7877   7.278   8.798   6.123 -0.2152 -0.1671  0.2904
  872CHOL    C2 7878   7.621   8.721   6.249  0.0382 -0.1006  0.1544
  873XCA    COO 7879   5.473   4.294   5.131 -0.1758  0.1141 -0.2658
  873XCA     C1 7880   5.694   3.961   5.403  0.0449  0.1094 -0.0145
  873XCA     C2 7881   5.820   3.811   5.845  0.1051  0.1716  0.1140
  873XCA     C3 7882   5.968   4.036   6.257  0.4135 -0.0771 -0.3060
  873XCA     C4 7883   6.034   4.438   6.412  0.1769 -0.0094  0.0723
  873XCA     C5 7884   6.098   4.593   6.829 -0.0129 -0.0036 -0.3437
  873XCA     C6 7885   6.299   4.869   7.110  0.2313 -0.1309 -0.1722
  874CHOL   ROH 7886  14.821  10.227   8.834 -0.0376  0.0110  0.0633
  874CHOL    R1 7887  14.831  10.038   8.623 -0.0752 -0.0023  0.0726
  874CHOL    R2 7888  14.611   9.977   8.467 -0.0552  0.1337 -0.0148
  874CHOL    R3 7889  14.779  10.040   8.263  0.0688  0.0231  0.0520
  874CHOL    R4 7890  14.578   9.865   8.142 -0.1025  0.3016 -0.0684
  874CHOL    R5 7891  14.794   9.839   8.134 -0.1293  0.0569 -0.0239
  874CHOL    C1 7892  14.716   9.859   7.761 -0.0135  0.2954 -0.0368
  874CHOL    C2 7893  14.729   9.747   7.366 -0.0833  0.2237 -0.2682
  875PNCE   AM1 7894   4.231  14.422   5.411  0.0922 -0.1454  0.0999
  875PNCE   AM2 7895   4.036  14.636   5.415 -0.4337 -0.0980 -0.2958
  875PNCE   T1A 7896   4.526  14.604   5.632 -0.1114 -0.0446  0.2941
  875PNCE   C2A 7897   4.734  14.603   6.064 -0.5257  0.2176 -0.0490
  875PNCE   C3A 7898   5.034  14.538   6.380 -0.1595 -0.2316  0.1036
  875PNCE   C1B 7899   4.036  14.790   5.777 -0.2294 -0.1267 -0.2234
  875PNCE   C2B 7900   3.750  14.855   6.099  0.1246  0.4004 -0.0205
  875PNCE   C3B 7901   3.814  14.955   6.587  0.2330  0.0133 -0.0142
  875PNCE   D4B 7902   3.674  14.809   6.933 -0.1770  0.1459 -0.1204
  875PNCE   C5B 7903   3.392  14.579   6.967  0.1965  0.1828  0.0980
  875PNCE   C6B 7904   3.056  14.326   6.785 -0.1668 -0.3678 -0.2313
  876CHOL   ROH 7905   4.215   4.854   6.928  0.2070 -0.0798 -0.1179
  876CHOL    R1 7906   4.166   4.668   6.720  0.0574 -0.0202 -0.1352
  876CHOL    R2 7907   4.180   4.395   6.759  0.0473 -0.0253 -0.2134
  876CHOL    R3 7908   3.928   4.400   6.656 -0.0152  0.0242 -0.0638
  876CHOL    R4 7909   4.026   4.130   6.599 -0.1015 -0.0104 -0.0993
  876CHOL    R5 7910   3.943   4.271   6.455 -0.1577  0.0009 -0.0661
  876CHOL    C1 7911   3.700   3.980   6.410 -0.2468  0.0449  0.1074
  876CHOL    C2 7912   3.739   3.734   6.089  0.2374  0.5376 -0.2865
  877CHOL   ROH 7913   0.113   3.805   5.067  0.1445  0.0945  0.0124
  877CHOL    R1 7914   0.052   3.896   5.328 -0.0203 -0.2558  0.1027
  877CHOL    R2 7915   0.072   3.734   5.551  0.4351 -0.3941 -0.0229
  877CHOL    R3 7916   0.229   3.935   5.643 -0.0276 -0.0655  0.0825
  877CHOL    R4 7917   0.132   3.800   5.885  0.3823 -0.5014  0.0078
  877CHOL    R5 7918   0.117   4.013   5.840 -0.1606 -0.4942  0.1811
  877CHOL    C1 7919   0.315   4.027   6.166 -0.0828 -0.2554  0.1246
  877CHOL    C2 7920   0.031   4.367   6.297 -0.0762  0.2238  0.1943
  878CHOL   ROH 7921   1.711   2.119   8.333  0.0823 -0.2076 -0.0588
  878CHOL    R1 7922   1.598   2.053   8.082  0.0603 -0.1123 -0.0748
  878CHOL    R2 7923   1.539   2.244   7.891 -0.0439 -0.0266  0.0358
  878CHOL    R3 7924   1.694   2.086   7.732 -0.0121  0.1132 -0.0734
  878CHOL    R4 7925   1.543   2.254   7.545 -0.1758  0.0768  0.0369
  878CHOL    R5 7926   1.555   2.037   7.544 -0.0491  0.0883 -0.0350
  878CHOL    C1 7927   1.690   2.112   7.195 -0.2227  0.2681 -0.0649
  878CHOL    C2 7928   1.594   2.009   6.822  0.1166  0.2218  0.3527
  879CHOL   ROH 7929   0.064  13.013   4.367  0.0822  0.1712  0.2213
  879CHOL    R1 7930  -0.118  13.028   4.583  0.0920  0.3936  0.2147
  879CHOL    R2 7931  -0.165  12.816   4.754 -0.3298  0.3748  0.0776
  879CHOL    R3 7932  -0.103  12.998   4.945  0.0085  0.1418  0.2017
  879CHOL    R4 7933  -0.210  12.769   5.093 -0.4066  0.2133  0.0471
  879CHOL    R5 7934  -0.277  12.976   5.108 -0.0389  0.3389  0.1883
  879CHOL    C1 7935  -0.178  12.914   5.471 -0.1340 -0.0996  0.1458
  879CHOL    C2 7936  -0.320  12.786   5.834 -0.2035  0.1445  0.0158
  880CHOL   ROH 7937   2.402   2.122   4.745 -0.2154 -0.0007  0.0243
  880CHOL    R1 7938   2.360   2.307   4.955  0.1646 -0.1396  0.2325
  880CHOL    R2 7939   2.566   2.410   5.106  0.5053  0.0752 -0.3486
  880CHOL    R3 7940   2.460   2.649   5.031 -0.0580 -0.0291  0.0467
  880CHOL    R4 7941   2.613   2.708   5.275  0.7056  0.0879 -0.4232
  880CHOL    R5 7942   2.403   2.756   5.238  0.4933 -0.1584  0.2855
  880CHOL    C1 7943   2.541   3.106   5.303  0.2935 -0.0026 -0.0955
  880CHOL    C2 7944   2.324   3.270   5.515 -0.0965 -0.0877  0.1724
  881PNCE   AM1 7945   0.790   3.561   4.823 -0.0616 -0.1605 -0.0674
  881PNCE   AM2 7946   0.908   3.615   5.097 -0.0555 -0.2609 -0.3261
  881PNCE   T1A 7947   0.385   3.444   4.975 -0.1030 -0.1740  0.1200
  881PNCE   C2A 7948   0.165   3.257   5.341 -0.1189  0.1152  0.1456
  881PNCE   C3A 7949   0.164   2.853   5.546 -0.0684 -0.0639 -0.0061
  881PNCE   C1B 7950   0.935   3.411   5.449 -0.1352  0.0611 -0.2699
  881PNCE   C2B 7951   1.123   3.260   5.840  0.0194 -0.1813  0.2966
  881PNCE   C3B 7952   1.210   3.059   6.219  0.0910 -0.2120 -0.0131
  881PNCE   D4B 7953   1.210   2.691   6.447  0.1988 -0.2528  0.3692
  881PNCE   C5B 7954   1.323   2.691   6.787  0.2093 -0.0394  0.1164
  881PNCE   C6B 7955   1.684   2.746   7.248 -0.0604 -0.0496  0.2242
  882XCA    COO 7956   0.021   8.139   5.464 -0.0286 -0.0098  0.1139
  882XCA     C1 7957   0.047   8.269   5.833 -0.1458 -0.1099 -0.1579
  882XCA     C2 7958  -0.107   8.177   6.153  0.1064 -0.0481 -0.0184
  882XCA     C3 7959  -0.286   8.053   6.518  0.0749 -0.2708 -0.0712
  882XCA     C4 7960  -0.234   7.696   6.768 -0.1190  0.2093  0.2711
  882XCA     C5 7961  -0.701   7.449   6.960 -0.0046  0.0612 -0.0083
  882XCA     C6 7962  -1.118   7.549   6.928  0.0861  0.2295 -0.1631
  883XCA    COO 7963   1.111   7.704   5.739  0.1037 -0.0059  0.1148
  883XCA     C1 7964   1.112   7.601   6.124 -0.0153  0.2266  0.3792
  883XCA     C2 7965   1.009   7.439   6.616 -0.2710  0.2738 -0.2532
  883XCA     C3 7966   0.909   7.581   7.024  0.1608  0.3668 -0.4361
  883XCA     C4 7967   1.307   7.631   7.283 -0.4357 -0.0159 -0.1692
  883XCA     C5 7968   1.539   7.806   7.593  0.0515  0.0105  0.2223
  883XCA     C6 7969   1.724   7.823   7.925  0.0205 -0.1060  0.2138
  884PNCE   AM1 7970   0.259   2.982   4.706  0.1050  0.2783 -0.0248
  884PNCE   AM2 7971   0.359   2.840   4.412  0.1526 -0.0012 -0.1097
  884PNCE   T1A 7972   0.039   2.819   5.066 -0.0562 -0.4050 -0.0171
  884PNCE   C2A 7973  -0.135   2.472   5.344 -0.0073 -0.2646  0.1056
  884PNCE   C3A 7974  -0.147   1.932   5.348 -0.1551 -0.0886  0.1310
  884PNCE   C1B 7975   0.381   2.496   4.752 -0.1261 -0.1219  0.0050
  884PNCE   C2B 7976   0.354   2.493   5.233 -0.1984  0.1363 -0.0259
  884PNCE   C3B 7977   0.440   2.298   5.588  0.1086  0.0802  0.3933
  884PNCE   D4B 7978   0.076   2.305   5.891  0.2062 -0.2576  0.1707
  884PNCE   C5B 7979  -0.065   2.122   6.276  0.1327 -0.1317  0.0478
  884PNCE   C6B 7980  -0.130   1.775   6.545 -0.0865  0.0753  0.3482
  885CHOL   ROH 7981  15.031  12.173   8.225  0.0478  0.3656  0.2037
  885CHOL    R1 7982  14.844  12.178   8.013  0.1097  0.2459  0.1462
  885CHOL    R2 7983  14.872  12.345   7.793  0.2059  0.0705  0.0359
  885CHOL    R3 7984  14.848  12.112   7.655  0.1896 -0.0229  0.1911
  885CHOL    R4 7985  14.816  12.321   7.453  0.1857 -0.1221  0.0511
  885CHOL    R5 7986  14.679  12.156   7.492  0.1718 -0.1042  0.1705
  885CHOL    C1 7987  14.760  12.088   7.126  0.1586 -0.3221  0.2057
  885CHOL    C2 7988  14.487  11.857   7.040  0.3240 -0.0376  0.0365
  886XCA    COO 7989   9.291  12.356   4.800 -0.1387 -0.0122  0.0058
  886XCA     C1 7990   9.449  12.437   5.174 -0.0548 -0.1290 -0.1316
  886XCA     C2 7991   9.745  12.626   5.422  0.3130 -0.1244 -0.1213
  886XCA     C3 7992   9.816  13.034   5.535 -0.1568  0.0835 -0.1060
  886XCA     C4 7993  10.045  13.262   5.715  0.0216 -0.1025 -0.0833
  886XCA     C5 7994  10.196  13.482   5.991 -0.5246 -0.0623  0.2158
  886XCA     C6 7995  10.357  13.699   6.328  0.0065  0.2705  0.0254
  887PNCE   AM1 7996  14.341   1.135   4.450 -0.0637  0.1251 -0.0428
  887PNCE   AM2 7997  14.347   1.428   4.697  0.0228 -0.0337 -0.3011
  887PNCE   T1A 7998  14.591   0.792   4.651  0.0527  0.1157  0.1585
  887PNCE   C2A 7999  14.862   0.530   4.647  0.1741  0.0427 -0.1022
  887PNCE   C3A 8000  15.024   0.301   4.363  0.0819 -0.0979  0.2075
  887PNCE   C1B 8001  14.559   1.582   5.116  0.1780 -0.0646 -0.0436
  887PNCE   C2B 8002  14.400   1.696   5.495  0.0095 -0.1065  0.2669
  887PNCE   C3B 8003  14.390   1.744   5.960 -0.2453  0.1772 -0.2398
  887PNCE   D4B 8004  14.553   1.775   6.389 -0.0512  0.3389 -0.2133
  887PNCE   C5B 8005  14.853   2.014   6.623  0.2127  0.0375 -0.0964
  887PNCE   C6B 8006  15.108   2.120   7.055  0.0489  0.0806 -0.1476
  888PNCE   AM1 8007   5.942   6.193   4.891 -0.1387  0.0595  0.0197
  888PNCE   AM2 8008   6.246   6.443   4.893  0.3421 -0.0574  0.2938
  888PNCE   T1A 8009   5.940   6.213   5.329 -0.0290  0.0232 -0.0693
  888PNCE   C2A 8010   5.824   6.203   5.785 -0.1026  0.2968 -0.1129
  888PNCE   C3A 8011   5.607   6.238   6.125  0.2270  0.0555 -0.2151
  888PNCE   C1B 8012   6.398   6.119   5.301  0.0190 -0.1066  0.2417
  888PNCE   C2B 8013   6.297   5.953   5.720 -0.1397  0.0380 -0.0886
  888PNCE   C3B 8014   6.307   5.502   5.632 -0.1212  0.2293  0.1436
  888PNCE   D4B 8015   6.345   5.070   5.861  0.0716  0.0748  0.3435
  888PNCE   C5B 8016   6.407   5.153   6.322  0.1289 -0.4065 -0.0632
  888PNCE   C6B 8017   6.169   5.142   6.639 -0.1372  0.1884 -0.0799
  889PNCE   AM1 8018  10.501  12.948   3.754 -0.0297  0.3585 -0.1077
  889PNCE   AM2 8019  10.346  12.948   4.116 -0.1508  0.1826  0.0814
  889PNCE   T1A 8020  10.842  12.844   4.008  0.0489 -0.0591  0.2919
  889PNCE   C2A 8021  11.071  12.516   4.237  0.2338  0.0109  0.2402
  889PNCE   C3A 8022  11.166  12.551   4.714 -0.2549 -0.0528 -0.1072
  889PNCE   C1B 8023  10.553  12.554   4.268 -0.2078 -0.0128  0.0305
  889PNCE   C2B 8024  10.712  12.328   4.610 -0.0186  0.1607  0.1366
  889PNCE   C3B 8025  10.927  12.307   5.031  0.1519 -0.3864 -0.1799
  889PNCE   D4B 8026  11.023  12.457   5.498 -0.2293 -0.1081 -0.2507
  889PNCE   C5B 8027  11.026  12.856   5.689  0.2438 -0.2230 -0.0746
  889PNCE   C6B 8028  11.079  13.196   5.546  0.1046 -0.0309 -0.0502
  890CHOL   ROH 8029   3.289   1.692   8.655 -0.2059 -0.1613 -0.1470
  890CHOL    R1 8030   3.291   1.701   8.372 -0.0898  0.0188 -0.1428
  890CHOL    R2 8031   3.390   1.917   8.231  0.1457  0.0316  0.0304
  890CHOL    R3 8032   3.542   1.726   8.110  0.0347 -0.0203 -0.0271
  890CHOL    R4 8033   3.483   1.920   7.898 -0.0232 -0.0338 -0.0178
  890CHOL    R5 8034   3.448   1.705   7.891 -0.0813 -0.0229  0.0247
  890CHOL    C1 8035   3.680   1.743   7.591 -0.2258 -0.1207 -0.1000
  890CHOL    C2 8036   3.608   2.022   7.301 -0.1034  0.0189 -0.3422
  891PNCE   AM1 8037  11.351  15.790   3.578 -0.0535  0.1239  0.0598
  891PNCE   AM2 8038  11.212  15.973   3.896 -0.2645  0.1696 -0.0193
  891PNCE   T1A 8039  11.106  15.466   3.771  0.3088  0.1856 -0.1155
  891PNCE   C2A 8040  11.085  15.410   4.253 -0.0474  0.0983  0.1584
  891PNCE   C3A 8041  10.908  15.540   4.663  0.0702 -0.0813  0.0159
  891PNCE   C1B 8042  11.082  15.880   4.332  0.2688 -0.0490 -0.1174
  891PNCE   C2B 8043  11.417  15.620   4.531  0.2551  0.0086 -0.1562
  891PNCE   C3B 8044  11.756  15.726   4.655 -0.0822 -0.2056  0.0588
  891PNCE   D4B 8045  12.126  15.752   5.004  0.0104  0.0531 -0.1869
  891PNCE   C5B 8046  12.030  15.572   5.351 -0.0451  0.1225 -0.2328
  891PNCE   C6B 8047  12.149  15.141   5.432 -0.0357 -0.1635  0.1804
  892PNCE   AM1 8048  13.087  13.566   3.734  0.2239 -0.1525  0.0166
  892PNCE   AM2 8049  12.916  13.657   3.928  0.2607  0.0051  0.1698
  892PNCE   T1A 8050  13.051  13.134   3.786  0.1973  0.0844  0.0598
  892PNCE   C2A 8051  13.205  12.958   4.205 -0.1468 -0.0348 -0.0606
  892PNCE   C3A 8052  13.438  12.687   4.507  0.4086  0.1368  0.0764
  892PNCE   C1B 8053  12.933  13.439   4.343  0.1202  0.1136  0.0576
  892PNCE   C2B 8054  13.023  13.067   4.624  0.2933  0.4742  0.2453
  892PNCE   C3B 8055  12.794  12.998   5.069  0.2956 -0.2338  0.1911
  892PNCE   D4B 8056  12.690  12.791   5.364  0.0738 -0.0801  0.0439
  892PNCE   C5B 8057  12.424  13.028   5.499  0.1352  0.0157 -0.0502
  892PNCE   C6B 8058  12.145  13.088   5.768 -0.3645  0.0692 -0.3472
  893CHOL   ROH 8059   2.242   0.535   8.414  0.2420 -0.0469  0.1321
  893CHOL    R1 8060   2.478   0.550   8.258  0.1880 -0.0288  0.0511
  893CHOL    R2 8061   2.472   0.573   7.983  0.0925 -0.1770  0.0376
  893CHOL    R3 8062   2.629   0.790   8.030  0.0139 -0.0833 -0.1242
  893CHOL    R4 8063   2.726   0.683   7.775  0.0290 -0.2166 -0.0608
  893CHOL    R5 8064   2.846   0.725   7.951  0.0306 -0.0509 -0.1015
  893CHOL    C1 8065   3.020   0.950   7.698 -0.0818 -0.1517 -0.2700
  893CHOL    C2 8066   3.420   0.992   7.814 -0.1844  0.2033 -0.2328
  894XCA    COO 8067   1.507  10.709   5.878 -0.0150  0.1640 -0.1335
  894XCA     C1 8068   1.376  10.991   6.082 -0.0951 -0.3532  0.2732
  894XCA     C2 8069   1.174  11.059   6.433  0.3542  0.0795 -0.0157
  894XCA     C3 8070   0.767  11.025   6.651 -0.1202  0.2714 -0.1224
  894XCA     C4 8071   0.416  11.213   6.758 -0.0526 -0.0089 -0.3769
  894XCA     C5 8072   0.220  11.624   6.558  0.4426 -0.0270  0.1807
  894XCA     C6 8073   0.031  11.763   6.219  0.0126  0.4255 -0.0117
  895PNCE   AM1 8074   5.238   5.541   5.113 -0.0942  0.4641 -0.3704
  895PNCE   AM2 8075   5.549   5.317   5.039 -0.2905  0.0438  0.0435
  895PNCE   T1A 8076   5.228   5.501   5.525 -0.0528 -0.0426 -0.0184
  895PNCE   C2A 8077   5.139   5.652   5.915 -0.1789 -0.3156 -0.0814
  895PNCE   C3A 8078   5.182   6.001   6.302  0.0468  0.2830 -0.0606
  895PNCE   C1B 8079   5.663   5.316   5.489  0.1168 -0.3258 -0.2902
  895PNCE   C2B 8080   5.898   5.296   5.954 -0.0925 -0.0158  0.2402
  895PNCE   C3B 8081   6.007   4.965   6.201  0.0174 -0.0326 -0.1241
  895PNCE   D4B 8082   5.774   4.837   6.560  0.2885 -0.0463 -0.0848
  895PNCE   C5B 8083   5.325   5.063   6.619 -0.0050 -0.1068  0.2448
  895PNCE   C6B 8084   5.249   5.497   6.428 -0.0304  0.2665  0.3626
  896XCA    COO 8085  13.215  15.039   4.374  0.2037  0.0164  0.0617
  896XCA     C1 8086  12.819  14.974   4.549 -0.1275  0.0481  0.2161
  896XCA     C2 8087  12.399  15.120   4.552 -0.0458 -0.1743  0.0564
  896XCA     C3 8088  12.098  15.269   4.715  0.0429  0.0466 -0.1180
  896XCA     C4 8089  11.728  15.381   5.031  0.2176  0.1531 -0.2228
  896XCA     C5 8090  11.643  15.305   5.460  0.0037  0.0211  0.0649
  896XCA     C6 8091  11.932  15.435   5.815 -0.0931  0.0904  0.0029
  897CHOL   ROH 8092   6.824   8.863   9.311  0.2102  0.3853 -0.0817
  897CHOL    R1 8093   6.732   8.660   9.136  0.0652  0.2509  0.1467
  897CHOL    R2 8094   6.577   8.714   8.913  0.0425  0.1022  0.1292
  897CHOL    R3 8095   6.772   8.575   8.785 -0.0602 -0.1335  0.2186
  897CHOL    R4 8096   6.566   8.618   8.582  0.1072  0.1927  0.1000
  897CHOL    R5 8097   6.654   8.427   8.639 -0.1790  0.0541  0.1153
  897CHOL    C1 8098   6.743   8.432   8.268  0.0486  0.0241  0.1670
  897CHOL    C2 8099   6.780   8.205   8.042  0.0571  0.0554  0.3433
  898CHOL   ROH 8100  15.444  15.338   4.879  0.1989 -0.0392  0.0446
  898CHOL    R1 8101  15.486  15.444   5.138  0.0856 -0.0797  0.0801
  898CHOL    R2 8102  15.337  15.365   5.357  0.0366 -0.1670  0.0170
  898CHOL    R3 8103  15.582  15.314   5.465  0.0175 -0.1199  0.0836
  898CHOL    R4 8104  15.417  15.401   5.691 -0.0350 -0.0800  0.0253
  898CHOL    R5 8105  15.610  15.484   5.631 -0.0309 -0.0791  0.0482
  898CHOL    C1 8106  15.694  15.374   5.987 -0.0947  0.0148  0.0927
  898CHOL    C2 8107  15.900  15.276   6.214 -0.1753 -0.1170 -0.1555
  899CHOL   ROH 8108   4.021   1.618   8.281  0.0258  0.0374 -0.0951
  899CHOL    R1 8109   4.007   1.727   8.020  0.0688  0.0846 -0.0782
  899CHOL    R2 8110   4.219   1.860   7.903  0.0951  0.0940 -0.0262
  899CHOL    R3 8111   4.181   1.679   7.704  0.1113  0.1290 -0.0606
  899CHOL    R4 8112   4.297   1.913   7.571  0.2076  0.1105  0.0026
  899CHOL    R5 8113   4.112   1.812   7.516  0.2018  0.1647 -0.0657
  899CHOL    C1 8114   4.307   1.774   7.190  0.2883  0.1530 -0.0129
  899CHOL    C2 8115   4.363   2.115   6.983  0.2006  0.0706 -0.0763
  900CHOL   ROH 8116   7.504   8.543   5.701  0.1091  0.0718  0.1306
  900CHOL    R1 8117   7.566   8.367   5.915  0.0560  0.0115  0.0970
  900CHOL    R2 8118   7.397   8.331   6.131  0.0565  0.0407  0.1040
  900CHOL    R3 8119   7.419   8.069   6.062 -0.0509  0.0442  0.0569
  900CHOL    R4 8120   7.286   8.066   6.323  0.0393  0.0472  0.1024
  900CHOL    R5 8121   7.466   7.957   6.268 -0.0149 -0.0019  0.0232
  900CHOL    C1 8122   7.241   7.666   6.371 -0.0716  0.0543  0.0571
  900CHOL    C2 8123   7.447   7.376   6.431  0.1225  0.2457 -0.0881
  901CHOL   ROH 8124   2.589  15.182   4.576  0.0091 -0.1131 -0.0588
  901CHOL    R1 8125   2.469  15.171   4.832  0.0267 -0.1083 -0.0508
  901CHOL    R2 8126   2.243  15.316   4.897  0.0393 -0.0991 -0.0354
  901CHOL    R3 8127   2.146  15.073   4.970  0.0320 -0.0944 -0.0275
  901CHOL    R4 8128   1.974  15.265   5.108 -0.0599 -0.0809 -0.1559
  901CHOL    R5 8129   2.083  15.100   5.199 -0.0844 -0.0484 -0.0635
  901CHOL    C1 8130   1.726  15.007   5.299 -0.1246 -0.0660 -0.2187
  901CHOL    C2 8131   1.385  15.131   5.492  0.0651  0.0805 -0.2224
  902PNCE   AM1 8132  12.244  11.827   4.066 -0.2434 -0.0126 -0.0412
  902PNCE   AM2 8133  12.382  12.035   3.848  0.0713 -0.1682  0.1902
  902PNCE   T1A 8134  12.269  11.778   4.453 -0.0014 -0.0164 -0.1838
  902PNCE   C2A 8135  12.338  11.872   4.856  0.0772 -0.1397  0.0463
  902PNCE   C3A 8136  12.291  12.213   5.236 -0.0343 -0.1106 -0.2940
  902PNCE   C1B 8137  12.555  12.216   4.268 -0.1300  0.2072 -0.1348
  902PNCE   C2B 8138  12.456  12.341   4.691 -0.1186  0.1896 -0.3401
  902PNCE   C3B 8139  11.991  12.411   4.900  0.0867 -0.1156 -0.0335
  902PNCE   D4B 8140  11.667  12.681   5.000  0.2897 -0.1267 -0.0507
  902PNCE   C5B 8141  11.422  12.531   5.229 -0.2397 -0.0200  0.0441
  902PNCE   C6B 8142  11.487  12.179   4.959  0.2112 -0.1185  0.1684
  903CHOL   ROH 8143   6.450  13.677   5.885  0.0138 -0.0235  0.0146
  903CHOL    R1 8144   6.360  13.668   6.154  0.0019 -0.2254  0.0053
  903CHOL    R2 8145   6.210  13.870   6.267  0.3291 -0.1197  0.2673
  903CHOL    R3 8146   6.039  13.667   6.325 -0.0043  0.0753 -0.0004
  903CHOL    R4 8147   6.022  13.847   6.556  0.1606 -0.1136  0.1591
  903CHOL    R5 8148   6.064  13.633   6.561 -0.1607 -0.1861 -0.0186
  903CHOL    C1 8149   5.751  13.643   6.779 -0.2505  0.0729 -0.1552
  903CHOL    C2 8150   5.910  13.750   7.136  0.0619 -0.0820 -0.1735
  904PNCE   AM1 8151  13.390  10.313   4.640 -0.0620  0.2672  0.0480
  904PNCE   AM2 8152  13.398  10.146   4.896 -0.4451  0.2152  0.3985
  904PNCE   T1A 8153  13.136  10.594   4.926  0.2746 -0.1687 -0.1353
  904PNCE   C2A 8154  12.870  10.794   5.173  0.0666  0.0277 -0.3623
  904PNCE   C3A 8155  12.471  10.760   5.473  0.3287  0.2208 -0.0080
  904PNCE   C1B 8156  13.256  10.148   5.250  0.0991  0.4697 -0.2525
  904PNCE   C2B 8157  13.070  10.075   5.685  0.0442 -0.2059  0.0863
  904PNCE   C3B 8158  12.885  10.063   6.022  0.1887 -0.3739  0.0325
  904PNCE   D4B 8159  12.772   9.781   6.307 -0.1294  0.3366  0.2026
  904PNCE   C5B 8160  12.418   9.709   6.528  0.2311  0.1313 -0.1279
  904PNCE   C6B 8161  12.099  10.090   6.649  0.0422  0.0331 -0.0139
  905CHOL   ROH 8162  12.032   4.050   5.538  0.2922 -0.0887 -0.0211
  905CHOL    R1 8163  11.986   4.307   5.647  0.2658 -0.0701 -0.0766
  905CHOL    R2 8164  11.837   4.347   5.876  0.1579 -0.0255 -0.1552
  905CHOL    R3 8165  12.060   4.479   5.959  0.1312 -0.0371 -0.0618
  905CHOL    R4 8166  11.845   4.585   6.128  0.0725 -0.0601 -0.1189
  905CHOL    R5 8167  11.984   4.701   6.007  0.1143 -0.0430 -0.0569
  905CHOL    C1 8168  12.059   4.847   6.351 -0.0022 -0.0911 -0.0100
  905CHOL    C2 8169  12.117   5.254   6.467 -0.0063 -0.0640  0.0427
  906PNCE   AM1 8170  10.384   1.080   4.410 -0.1959  0.0493 -0.3311
  906PNCE   AM2 8171  10.595   0.899   4.120  0.0301  0.1409 -0.2756
  906PNCE   T1A 8172  10.271   1.210   4.771 -0.0394 -0.2009 -0.0713
  906PNCE   C2A 8173  10.244   1.260   5.217 -0.0068 -0.1945  0.1028
  906PNCE   C3A 8174  10.034   0.945   5.535 -0.3014  0.0938  0.3383
  906PNCE   C1B 8175  10.458   0.500   4.455  0.4032 -0.1979 -0.1107
  906PNCE   C2B 8176  10.725   0.093   4.710  0.0191 -0.2132  0.1733
  906PNCE   C3B 8177  11.120   0.237   4.813 -0.1166  0.0295 -0.0623
  906PNCE   D4B 8178  11.339  -0.040   5.051 -0.4378 -0.0375 -0.0169
  906PNCE   C5B 8179  11.066  -0.344   5.144  0.2053  0.3620 -0.3105
  906PNCE   C6B 8180  10.609  -0.290   5.238 -0.0958  0.0498 -0.1778
  907PNCE   AM1 8181   7.070   7.144   5.048  0.0313  0.1505 -0.0818
  907PNCE   AM2 8182   7.237   7.462   5.118 -0.1565  0.0581  0.0602
  907PNCE   T1A 8183   6.973   7.071   5.500 -0.1945 -0.3640  0.0037
  907PNCE   C2A 8184   7.069   6.795   5.930  0.1858 -0.1330  0.1745
  907PNCE   C3A 8185   7.169   6.521   6.296 -0.1654  0.0669  0.0834
  907PNCE   C1B 8186   7.400   7.529   5.525  0.1313  0.0145  0.1097
  907PNCE   C2B 8187   7.651   7.599   5.924 -0.1768 -0.1719 -0.3602
  907PNCE   C3B 8188   7.894   7.654   6.270  0.0468 -0.0706 -0.1568
  907PNCE   D4B 8189   7.878   7.831   6.621 -0.0631 -0.0303 -0.2360
  907PNCE   C5B 8190   7.397   7.756   6.793 -0.2289  0.5389 -0.1811
  907PNCE   C6B 8191   6.901   7.922   6.667  0.1293  0.0623  0.2812
  908PNCE   AM1 8192   4.503   4.704   5.111  0.1291  0.0760 -0.1260
  908PNCE   AM2 8193   4.691   4.903   5.209  0.2217 -0.0509  0.0104
  908PNCE   T1A 8194   4.381   4.429   5.379  0.1292  0.0347 -0.2718
  908PNCE   C2A 8195   4.443   4.022   5.516  0.2264 -0.0885  0.2323
  908PNCE   C3A 8196   4.445   3.580   5.347 -0.3026  0.2652  0.1442
  908PNCE   C1B 8197   4.892   4.842   5.601 -0.0863  0.1129 -0.3468
  908PNCE   C2B 8198   4.957   4.805   5.981  0.2062  0.0013  0.0115
  908PNCE   C3B 8199   5.069   4.677   6.371 -0.0715  0.1646 -0.1819
  908PNCE   D4B 8200   5.190   4.607   6.777 -0.2562  0.0154 -0.1575
  908PNCE   C5B 8201   5.213   4.261   7.154 -0.1102 -0.1094 -0.1783
  908PNCE   C6B 8202   5.028   4.080   7.468 -0.0414  0.2096 -0.0016
  909PNCE   AM1 8203   0.357  15.692   4.281 -0.3534  0.4253  0.0180
  909PNCE   AM2 8204   0.535  15.565   4.104 -0.0996 -0.1787 -0.0307
  909PNCE   T1A 8205   0.365  15.793   4.699  0.0012  0.0525  0.2519
  909PNCE   C2A 8206   0.454  15.942   5.092 -0.1712  0.2616 -0.0683
  909PNCE   C3A 8207   0.664  15.906   5.470 -0.0379  0.1910  0.2261
  909PNCE   C1B 8208   0.800  15.623   4.533 -0.0418 -0.1665 -0.2807
  909PNCE   C2B 8209   0.941  15.679   4.953 -0.3345 -0.0656 -0.1787
  909PNCE   C3B 8210   1.076  15.527   5.388  0.2107  0.0416 -0.1490
  909PNCE   D4B 8211   0.977  15.532   5.863 -0.0164  0.2649  0.0059
  909PNCE   C5B 8212   1.127  15.160   5.961 -0.3798 -0.0773  0.0294
  909PNCE   C6B 8213   1.467  14.882   5.962 -0.0723 -0.2196 -0.1798
  910XCA    COO 8214   5.916   4.715   8.746  0.0319  0.1689  0.2590
  910XCA     C1 8215   5.679   4.914   8.448 -0.1506 -0.0959  0.2564
  910XCA     C2 8216   5.695   5.253   8.159 -0.1904 -0.1481  0.2041
  910XCA     C3 8217   5.454   5.351   7.833 -0.1958 -0.1442  0.1606
  910XCA     C4 8218   5.350   5.267   7.464  0.0959 -0.1081 -0.4003
  910XCA     C5 8219   5.686   5.315   7.109  0.1162  0.2406 -0.0477
  910XCA     C6 8220   6.137   5.311   7.203  0.0125 -0.1130  0.1462
  911PNCE   AM1 8221  13.494  14.754   4.735  0.0865  0.1373  0.1397
  911PNCE   AM2 8222  13.208  14.747   4.792 -0.2338  0.1129 -0.1587
  911PNCE   T1A 8223  13.466  14.406   5.083  0.1246  0.1565  0.0931
  911PNCE   C2A 8224  13.317  14.175   5.501 -0.4075 -0.2068  0.4717
  911PNCE   C3A 8225  13.382  14.016   5.832 -0.2828  0.0780  0.1687
  911PNCE   C1B 8226  13.096  14.672   5.223  0.1246  0.1421 -0.0008
  911PNCE   C2B 8227  12.845  14.448   5.545  0.1758 -0.2899 -0.2960
  911PNCE   C3B 8228  12.896  14.174   5.983  0.0177  0.3096  0.1855
  911PNCE   D4B 8229  12.802  13.900   6.416  0.0821 -0.0561  0.0144
  911PNCE   C5B 8230  12.522  13.852   6.757  0.2647 -0.1368 -0.0447
  911PNCE   C6B 8231  12.234  13.861   7.156  0.0781  0.0728  0.1259
  912CHOL   ROH 8232  15.290   5.968   5.485 -0.2296 -0.0526  0.0781
  912CHOL    R1 8233  15.364   6.053   5.744 -0.1888 -0.0840  0.0774
  912CHOL    R2 8234  15.262   6.281   5.862 -0.1653 -0.0922  0.1197
  912CHOL    R3 8235  15.196   6.109   6.062 -0.1418 -0.1147  0.1073
  912CHOL    R4 8236  15.156   6.375   6.177 -0.1147 -0.1300  0.1475
  912CHOL    R5 8237  15.277   6.215   6.261 -0.1091 -0.1443  0.1085
  912CHOL    C1 8238  15.032   6.269   6.548 -0.0631 -0.1732  0.1520
  912CHOL    C2 8239  14.631   6.189   6.674  0.0549  0.0601 -0.0094
  913CHOL   ROH 8240   8.480  14.858   8.339  0.0737  0.1287 -0.0336
  913CHOL    R1 8241   8.320  14.770   8.123  0.0973  0.1478 -0.0589
  913CHOL    R2 8242   8.229  14.941   7.926  0.1740  0.1537 -0.0905
  913CHOL    R3 8243   8.347  14.760   7.760  0.1685  0.1150 -0.0523
  913CHOL    R4 8244   8.179  14.923   7.584  0.1281  0.0385 -0.0785
  913CHOL    R5 8245   8.178  14.706   7.601  0.1536  0.0454 -0.0108
  913CHOL    C1 8246   8.261  14.743   7.230  0.0964 -0.0651 -0.0356
  913CHOL    C2 8247   8.027  14.722   6.964 -0.2372 -0.1808 -0.1026
  914CHOL   ROH 8248  15.498   3.099   5.107 -0.0006  0.0191 -0.0223
  914CHOL    R1 8249  15.617   3.053   5.359  0.0408  0.0128 -0.0434
  914CHOL    R2 8250  15.504   3.141   5.595  0.0638 -0.0217 -0.0219
  914CHOL    R3 8251  15.528   2.879   5.666  0.1070 -0.0244 -0.0443
  914CHOL    R4 8252  15.607   3.029   5.906 -0.1828 -0.0269  0.0605
  914CHOL    R5 8253  15.722   2.873   5.806 -0.0196  0.0370  0.1411
  914CHOL    C1 8254  15.689   2.718   6.153 -0.2859 -0.0325  0.0875
  914CHOL    C2 8255  15.682   2.535   6.536 -0.0423  0.1205  0.4454
  915XCA    COO 8256  15.522  11.930   4.190 -0.0625  0.1464 -0.0787
  915XCA     C1 8257  15.360  11.858   4.659 -0.2083  0.1106 -0.2759
  915XCA     C2 8258  15.239  11.465   5.008  0.0618  0.1078 -0.0138
  915XCA     C3 8259  15.367  11.147   5.278 -0.1789  0.0845 -0.1447
  915XCA     C4 8260  15.441  10.725   5.487 -0.3057 -0.0417  0.1125
  915XCA     C5 8261  15.290  10.418   5.764 -0.3511 -0.0982  0.0345
  915XCA     C6 8262  15.069  10.312   6.087  0.2038  0.3725 -0.0115
  916PNCE   AM1 8263  15.553   0.034   4.606 -0.3396  0.3749 -0.0578
  916PNCE   AM2 8264  15.230  -0.065   4.597  0.0728  0.0767  0.2648
  916PNCE   T1A 8265  15.459   0.001   4.995  0.0307 -0.0419 -0.2033
  916PNCE   C2A 8266  15.516  -0.030   5.339 -0.0645  0.0100 -0.1043
  916PNCE   C3A 8267  15.460   0.210   5.683  0.2336 -0.2555  0.6000
  916PNCE   C1B 8268  15.009   0.111   4.828  0.0911  0.3636 -0.0880
  916PNCE   C2B 8269  15.058   0.209   5.200 -0.0263 -0.1067 -0.0033
  916PNCE   C3B 8270  14.992   0.307   5.697 -0.2358 -0.2128  0.1864
  916PNCE   D4B 8271  15.067   0.584   5.895 -0.4741  0.3252  0.0661
  916PNCE   C5B 8272  15.393   0.475   6.202  0.0262  0.1836  0.0375
  916PNCE   C6B 8273  15.537   0.659   6.607 -0.1033  0.1763 -0.1591
  917CHOL   ROH 8274  12.345   8.536   5.102 -0.0024  0.0187 -0.1176
  917CHOL    R1 8275  12.284   8.513   5.378 -0.0157  0.0288 -0.1201
  917CHOL    R2 8276  12.457   8.397   5.560 -0.0515 -0.0206 -0.1190
  917CHOL    R3 8277  12.425   8.633   5.690  0.0074 -0.0154 -0.1132
  917CHOL    R4 8278  12.500   8.442   5.899 -0.0593 -0.0440 -0.1145
  917CHOL    R5 8279  12.325   8.573   5.899 -0.0230  0.0057 -0.1210
  917CHOL    C1 8280  12.495   8.690   6.220 -0.0087 -0.0527 -0.1065
  917CHOL    C2 8281  12.395   8.846   6.449 -0.0492 -0.0433  0.3937
  918CHOL   ROH 8282   0.004  14.265   7.781 -0.0924  0.1007  0.0762
  918CHOL    R1 8283   0.002  14.393   7.529 -0.1177  0.0934  0.0723
  918CHOL    R2 8284   0.141  14.295   7.311  0.0495  0.2127  0.1225
  918CHOL    R3 8285  -0.102  14.307   7.190  0.0783 -0.0101  0.0372
  918CHOL    R4 8286   0.085  14.236   6.975  0.2217  0.1727  0.0999
  918CHOL    R5 8287  -0.056  14.403   6.975  0.0651  0.0416  0.0578
  918CHOL    C1 8288  -0.176  14.214   6.666  0.3491 -0.0597  0.0066
  918CHOL    C2 8289  -0.512  14.097   6.527  0.0525 -0.0421 -0.0119
  919CHOL   ROH 8290  14.150  11.563   8.255  0.5272  0.1917 -0.1467
  919CHOL    R1 8291  14.154  11.637   7.981  0.3978  0.1692 -0.1555
  919CHOL    R2 8292  13.924  11.691   7.838  0.3044 -0.1405 -0.1341
  919CHOL    R3 8293  14.051  11.925   7.783  0.0005  0.0209 -0.1711
  919CHOL    R4 8294  13.960  11.826   7.522  0.1008 -0.1135 -0.1474
  919CHOL    R5 8295  14.164  11.883   7.576  0.0319  0.1518 -0.1771
  919CHOL    C1 8296  14.101  12.124   7.287 -0.3032  0.0536 -0.1899
  919CHOL    C2 8297  14.026  12.361   6.971 -0.0492 -0.0961 -0.2623
  920CHOL   ROH 8298  13.116  10.851   8.257 -0.0775  0.2347 -0.1991
  920CHOL    R1 8299  13.133  10.881   7.977  0.1373 -0.1158 -0.2287
  920CHOL    R2 8300  13.202  10.672   7.809 -0.2520 -0.4756  0.0376
  920CHOL    R3 8301  12.969  10.738   7.685 -0.0508 -0.0698 -0.1461
  920CHOL    R4 8302  13.156  10.676   7.467  0.0276 -0.3328 -0.0017
  920CHOL    R5 8303  13.038  10.859   7.490  0.3052 -0.1427 -0.0695
  920CHOL    C1 8304  12.910  10.739   7.151  0.3794  0.1312 -0.1971
  920CHOL    C2 8305  13.172  10.697   6.815  0.2384 -0.0312 -0.3565
  921PNCE   AM1 8306  11.159   6.638   4.816 -0.0835  0.0531  0.2102
  921PNCE   AM2 8307  11.275   6.940   4.807  0.3350  0.0962 -0.1661
  921PNCE   T1A 8308  11.004   6.322   5.108 -0.1281  0.1180  0.1767
  921PNCE   C2A 8309  10.988   5.894   5.114  0.4325 -0.1000 -0.1807
  921PNCE   C3A 8310  11.014   5.387   5.007  0.4458  0.0175 -0.0968
  921PNCE   C1B 8311  11.100   6.856   5.255 -0.0583  0.1476 -0.1280
  921PNCE   C2B 8312  11.143   6.590   5.577  0.0542  0.2814 -0.2694
  921PNCE   C3B 8313  11.140   6.407   6.044 -0.1275  0.1582  0.1163
  921PNCE   D4B 8314  10.984   6.224   6.420  0.0356  0.2121  0.2490
  921PNCE   C5B 8315  10.853   5.914   6.454  0.1807 -0.0601 -0.3906
  921PNCE   C6B 8316  10.786   5.521   6.283 -0.2885 -0.0224  0.0229
  922CHOL   ROH 8317  12.876   9.241   8.168 -0.1188  0.2100 -0.1074
  922CHOL    R1 8318  12.853   9.203   7.888 -0.0893  0.1489 -0.1021
  922CHOL    R2 8319  13.050   9.282   7.711 -0.0283  0.0255 -0.0922
  922CHOL    R3 8320  13.034   9.023   7.630 -0.1197  0.0104 -0.0272
  922CHOL    R4 8321  13.163   9.163   7.407  0.0548 -0.1177 -0.0060
  922CHOL    R5 8322  12.986   9.036   7.396 -0.0028 -0.0312 -0.0534
  922CHOL    C1 8323  13.215   8.850   7.154  0.0173 -0.2152  0.1052
  922CHOL    C2 8324  13.442   8.781   6.902  0.0988 -0.3450  0.3499
  923PNCE   AM1 8325   4.834  12.753   8.879  0.1854  0.0665 -0.0985
  923PNCE   AM2 8326   5.019  13.051   8.803  0.3297 -0.3378 -0.0973
  923PNCE   T1A 8327   5.041  12.381   8.588  0.0915 -0.1197  0.0313
  923PNCE   C2A 8328   5.463  12.235   8.733 -0.0872  0.0961 -0.0078
  923PNCE   C3A 8329   5.908  12.159   8.741  0.0637 -0.2439 -0.1452
  923PNCE   C1B 8330   4.854  13.306   8.560  0.2246 -0.0903 -0.1254
  923PNCE   C2B 8331   4.839  13.356   8.133 -0.1474 -0.0419 -0.1428
  923PNCE   C3B 8332   4.860  13.444   7.720  0.2095  0.0002  0.0178
  923PNCE   D4B 8333   4.651  13.344   7.355  0.1410 -0.2076  0.1072
  923PNCE   C5B 8334   4.602  13.317   6.935 -0.1198 -0.1221  0.0058
  923PNCE   C6B 8335   4.562  13.530   6.505  0.1003  0.1010  0.1647
  924PNCE   AM1 8336  11.693  13.274   4.187 -0.1797 -0.0021 -0.5722
  924PNCE   AM2 8337  11.831  13.531   3.946  0.0963  0.3710 -0.0707
  924PNCE   T1A 8338  11.459  13.148   4.623 -0.0924 -0.1974  0.0400
  924PNCE   C2A 8339  11.158  13.035   4.999 -0.0444  0.2023 -0.2502
  924PNCE   C3A 8340  10.766  12.819   5.214 -0.1739  0.4536  0.1060
  924PNCE   C1B 8341  11.438  13.608   4.343  0.3692 -0.3345  0.1688
  924PNCE   C2B 8342  11.312  13.571   4.792  0.0666  0.0432  0.2600
  924PNCE   C3B 8343  11.022  13.512   5.109 -0.1063 -0.1284  0.0925
  924PNCE   D4B 8344  10.931  13.636   5.401  0.2125  0.0537  0.0349
  924PNCE   C5B 8345  11.056  13.992   5.700 -0.0517  0.0182 -0.2636
  924PNCE   C6B 8346  11.270  14.173   6.041  0.2259 -0.1480  0.3713
  925CHOL   ROH 8347   6.263   3.073   4.801  0.0170  0.1582 -0.0290
  925CHOL    R1 8348   6.238   3.218   5.043 -0.0756  0.0221  0.0443
  925CHOL    R2 8349   6.182   3.095   5.284  0.1902 -0.1610  0.0182
  925CHOL    R3 8350   6.407   3.225   5.365  0.0550  0.1080 -0.0255
  925CHOL    R4 8351   6.245   3.199   5.608  0.1740 -0.1732  0.0252
  925CHOL    R5 8352   6.330   3.383   5.528 -0.0917 -0.0377  0.0479
  925CHOL    C1 8353   6.493   3.380   5.873  0.0377  0.0723 -0.0117
  925CHOL    C2 8354   6.225   3.295   6.116  0.2010  0.1916  0.3525
  926CHOL   ROH 8355   0.104   1.906   5.695  0.2262  0.0867 -0.1008
  926CHOL    R1 8356   0.074   1.796   5.954  0.1312  0.1053 -0.1034
  926CHOL    R2 8357   0.248   1.608   6.057  0.1068  0.1279 -0.0173
  926CHOL    R3 8358   0.269   1.786   6.261  0.0089  0.1475 -0.0240
  926CHOL    R4 8359   0.475   1.584   6.316 -0.2763 -0.0590  0.3106
  926CHOL    R5 8360   0.318   1.651   6.453 -0.4005  0.1341  0.0785
  926CHOL    C1 8361   0.626   1.737   6.660 -0.5913 -0.1495  0.4953
  926CHOL    C2 8362   0.926   1.993   6.902 -0.1539  0.1573  0.1866
  927PNCE   AM1 8363  14.944  13.124   4.582 -0.1817  0.2275  0.1995
  927PNCE   AM2 8364  14.591  12.942   4.598 -0.2644  0.2246  0.2371
  927PNCE   T1A 8365  15.294  13.351   4.857  0.0839 -0.0191  0.0012
  927PNCE   C2A 8366  15.656  13.471   4.956 -0.0259 -0.1087 -0.0910
  927PNCE   C3A 8367  15.839  13.366   5.308 -0.0901 -0.0129 -0.0118
  927PNCE   C1B 8368  14.771  12.937   5.008  0.0263 -0.1732 -0.0017
  927PNCE   C2B 8369  15.102  13.059   5.228 -0.0978 -0.1738  0.0253
  927PNCE   C3B 8370  15.264  13.146   5.589 -0.0923 -0.4511 -0.0664
  927PNCE   D4B 8371  15.639  13.353   5.766  0.0468  0.0212 -0.2935
  927PNCE   C5B 8372  16.008  13.231   5.932  0.1102 -0.1515 -0.0851
  927PNCE   C6B 8373  16.179  13.040   6.251  0.3589 -0.3785 -0.0509
  928CHOL   ROH 8374  14.108  11.626   6.533  0.2593  0.2435  0.2944
  928CHOL    R1 8375  14.031  11.756   6.294  0.1203 -0.0745  0.1612
  928CHOL    R2 8376  14.027  12.031   6.267 -0.2684 -0.0931 -0.0819
  928CHOL    R3 8377  14.186  11.980   6.053 -0.1486 -0.0596 -0.0017
  928CHOL    R4 8378  14.072  12.244   5.999 -0.0105  0.0048  0.0358
  928CHOL    R5 8379  14.066  12.071   5.867  0.0087  0.0659 -0.0416
  928CHOL    C1 8380  14.247  12.321   5.642  0.2521  0.0932  0.1797
  928CHOL    C2 8381  14.532  12.592   5.610 -0.1619 -0.3217  0.2025
  929CHOL   ROH 8382   7.177   7.588   8.837  0.0176  0.0857  0.0548
  929CHOL    R1 8383   7.274   7.523   8.579 -0.0388  0.1327  0.0211
  929CHOL    R2 8384   7.341   7.715   8.393 -0.0496  0.1678  0.0514
  929CHOL    R3 8385   7.578   7.582   8.388 -0.0675  0.1393 -0.0223
  929CHOL    R4 8386   7.572   7.735   8.137 -0.2378 -0.0545 -0.1400
  929CHOL    R5 8387   7.606   7.520   8.158 -0.2461 -0.0426  0.0024
  929CHOL    C1 8388   7.929   7.622   7.983 -0.3641 -0.2107 -0.3205
  929CHOL    C2 8389   7.689   7.463   7.686 -0.0664 -0.0101  0.0788
  930CHOL   ROH 8390  13.926   4.499   5.383 -0.0322 -0.2117  0.1390
  930CHOL    R1 8391  13.991   4.609   5.636 -0.0571 -0.1637  0.1234
  930CHOL    R2 8392  14.196   4.511   5.793  0.0468 -0.0127  0.0752
  930CHOL    R3 8393  14.280   4.769   5.788 -0.1395  0.0507  0.0630
  930CHOL    R4 8394  14.370   4.667   6.047  0.0768  0.0643  0.0083
  930CHOL    R5 8395  14.251   4.846   6.013 -0.0749 -0.0082  0.0975
  930CHOL    C1 8396  14.552   5.001   6.190 -0.0805  0.1686 -0.0421
  930CHOL    C2 8397  14.900   5.189   6.370 -0.2007 -0.3073 -0.1317
  931CHOL   ROH 8398   3.446   5.433   5.459  0.0219 -0.1007  0.0337
  931CHOL    R1 8399   3.338   5.171   5.462  0.2386 -0.1979 -0.1842
  931CHOL    R2 8400   3.495   4.945   5.453  0.4743 -0.0669  0.2450
  931CHOL    R3 8401   3.358   4.879   5.678 -0.0292 -0.1312 -0.0664
  931CHOL    R4 8402   3.481   4.628   5.591  0.3386 -0.0612  0.2433
  931CHOL    R5 8403   3.270   4.661   5.633  0.2085 -0.1888 -0.2602
  931CHOL    C1 8404   3.343   4.383   5.883 -0.2132 -0.1182 -0.0500
  931CHOL    C2 8405   3.312   4.037   6.040  0.2479  0.1104 -0.0468
  932XCA    COO 8406  15.759  14.436   8.217 -0.4133  0.0224  0.0301
  932XCA     C1 8407  15.502  14.124   7.947 -0.0976  0.0299  0.0292
  932XCA     C2 8408  15.607  14.030   7.512  0.2699  0.3364  0.1956
  932XCA     C3 8409  15.601  13.876   7.022 -0.0362  0.4508  0.0651
  932XCA     C4 8410  15.396  13.558   6.689  0.0610 -0.1952 -0.3554
  932XCA     C5 8411  15.214  13.235   6.532  0.1536 -0.0426  0.3725
  932XCA     C6 8412  15.240  12.862   6.251 -0.0060  0.1476 -0.1773
  933XCA    COO 8413   4.002   3.789   8.804 -0.3508 -0.0672  0.1398
  933XCA     C1 8414   4.104   3.765   8.439 -0.2655 -0.1049  0.0824
  933XCA     C2 8415   4.132   3.987   8.038  0.4515  0.0025  0.0854
  933XCA     C3 8416   4.038   4.186   7.596  0.2365 -0.0459 -0.0884
  933XCA     C4 8417   3.595   4.272   7.445 -0.1417 -0.0082  0.1016
  933XCA     C5 8418   3.184   4.142   7.570  0.1981  0.2747 -0.0462
  933XCA     C6 8419   2.780   4.259   7.677  0.2397  0.0261 -0.1178
  934CHOL   ROH 8420  10.384   0.565   4.917  0.0553 -0.0083  0.0207
  934CHOL    R1 8421  10.623   0.432   4.987 -0.0001 -0.1396 -0.0376
  934CHOL    R2 8422  10.735   0.449   5.239  0.1511 -0.0736 -0.1079
  934CHOL    R3 8423  10.725   0.178   5.227 -0.0506 -0.0759  0.0509
  934CHOL    R4 8424  10.904   0.235   5.452  0.0214 -0.0826 -0.0116
  934CHOL    R5 8425  10.947   0.107   5.281 -0.0968 -0.2132  0.0580
  934CHOL    C1 8426  10.992  -0.144   5.564 -0.2434 -0.0900  0.1936
  934CHOL    C2 8427  11.193  -0.463   5.605  0.1679 -0.4271 -0.0639
  935PNCE   AM1 8428   9.959  15.700   8.173  0.2443 -0.1574 -0.2700
  935PNCE   AM2 8429   9.710  15.904   8.087 -0.1445 -0.1778  0.1287
  935PNCE   T1A 8430  10.247  15.847   7.810 -0.4604  0.0813  0.1345
  935PNCE   C2A 8431  10.297  15.937   7.389  0.2943  0.1674 -0.0266
  935PNCE   C3A 8432  10.272  16.073   7.016 -0.0705 -0.0252 -0.1445
  935PNCE   C1B 8433   9.818  15.958   7.589  0.1899 -0.1654 -0.3406
  935PNCE   C2B 8434   9.883  15.913   7.201  0.0870 -0.0050 -0.2952
  935PNCE   C3B 8435  10.063  15.583   6.927  0.1943 -0.0049  0.0733
  935PNCE   D4B 8436  10.409  15.365   6.715 -0.1397 -0.0466  0.0524
  935PNCE   C5B 8437  10.854  15.398   6.650  0.0753  0.2336 -0.2127
  935PNCE   C6B 8438  11.262  15.618   6.437  0.1350 -0.2455  0.3002
  936CHOL   ROH 8439   9.566  14.662   6.406 -0.1048 -0.1172  0.2294
  936CHOL    R1 8440   9.595  14.895   6.248 -0.1730 -0.1912  0.1045
  936CHOL    R2 8441   9.396  15.086   6.228 -0.1306 -0.1289  0.2150
  936CHOL    R3 8442   9.595  15.255   6.306  0.0057 -0.1681 -0.0394
  936CHOL    R4 8443   9.424  15.417   6.132 -0.1320 -0.1580  0.1148
  936CHOL    R5 8444   9.640  15.388   6.112 -0.1636 -0.2235 -0.1143
  936CHOL    C1 8445   9.628  15.767   6.149 -0.0047 -0.2117 -0.1822
  936CHOL    C2 8446   9.936  16.109   6.171  0.3578  0.0352 -0.1223
  937PNCE   AM1 8447  13.195   5.260   4.807  0.0919 -0.0443  0.0094
  937PNCE   AM2 8448  13.534   5.204   4.684  0.1109 -0.0013  0.1083
  937PNCE   T1A 8449  13.382   5.676   4.915 -0.0309 -0.2576 -0.2674
  937PNCE   C2A 8450  13.556   5.855   5.369 -0.0049 -0.0113  0.1199
  937PNCE   C3A 8451  13.238   5.898   5.713 -0.0577 -0.1395 -0.1739
  937PNCE   C1B 8452  13.520   4.951   5.074  0.1061 -0.1403  0.0640
  937PNCE   C2B 8453  13.790   4.944   5.398  0.3357  0.2831  0.3077
  937PNCE   C3B 8454  13.720   5.011   5.806  0.0597  0.0583  0.1331
  937PNCE   D4B 8455  13.769   4.809   6.078 -0.2106  0.3565 -0.2489
  937PNCE   C5B 8456  13.852   5.179   6.402 -0.1332 -0.2194 -0.1345
  937PNCE   C6B 8457  13.987   5.405   6.740 -0.0952  0.0601  0.2012
  938XCA    COO 8458   7.053  11.235   8.772  0.0950 -0.2039 -0.0138
  938XCA     C1 8459   6.757  11.145   8.363  0.3870  0.0401 -0.0436
  938XCA     C2 8460   6.837  11.292   7.994  0.0520 -0.1054  0.0720
  938XCA     C3 8461   6.720  11.587   7.645 -0.0108  0.3370  0.2103
  938XCA     C4 8462   6.612  12.022   7.396 -0.0489  0.2176 -0.1377
  938XCA     C5 8463   6.288  12.326   7.318 -0.1027  0.0533 -0.0913
  938XCA     C6 8464   6.106  12.735   7.355 -0.0371 -0.0452 -0.2568
  939CHOL   ROH 8465   3.886  14.449   5.967  0.1852 -0.1805 -0.0368
  939CHOL    R1 8466   3.826  14.362   6.230  0.0835 -0.1767 -0.0568
  939CHOL    R2 8467   4.022  14.288   6.410  0.0174 -0.1903  0.0201
  939CHOL    R3 8468   3.900  14.472   6.569 -0.0305 -0.1780 -0.0331
  939CHOL    R4 8469   3.989  14.262   6.753 -0.0888 -0.1489  0.0124
  939CHOL    R5 8470   3.787  14.341   6.735 -0.0780 -0.1547 -0.0540
  939CHOL    C1 8471   3.856  14.420   7.102 -0.1957 -0.1132 -0.0419
  939CHOL    C2 8472   3.645  14.508   7.433  0.2208  0.0628  0.1616
  940CHOL   ROH 8473   7.256   2.562   4.820 -0.0174  0.1454  0.0676
  940CHOL    R1 8474   7.341   2.453   5.067 -0.0498  0.0357  0.0316
  940CHOL    R2 8475   7.431   2.609   5.276 -0.0441 -0.0574  0.1039
  940CHOL    R3 8476   7.239   2.476   5.415 -0.0742 -0.0882  0.0321
  940CHOL    R4 8477   7.449   2.531   5.612 -0.1781 -0.0260  0.1185
  940CHOL    R5 8478   7.362   2.337   5.567 -0.1130 -0.0467  0.0979
  940CHOL    C1 8479   7.280   2.361   5.939 -0.2844 -0.0367  0.0596
  940CHOL    C2 8480   7.450   2.022   6.105 -0.0188  0.0931 -0.0769
  941CHOL   ROH 8481   1.927   5.879   9.184  0.0808 -0.1310 -0.1910
  941CHOL    R1 8482   2.003   5.859   8.912  0.0323  0.0854 -0.2219
  941CHOL    R2 8483   1.832   5.765   8.716  0.0659  0.0454 -0.2295
  941CHOL    R3 8484   1.892   6.001   8.596 -0.1683  0.1662 -0.1180
  941CHOL    R4 8485   1.768   5.839   8.385  0.3015  0.0033 -0.2861
  941CHOL    R5 8486   1.962   5.939   8.375  0.1661  0.3089 -0.0602
  941CHOL    C1 8487   1.788   6.104   8.078  0.2188  0.0923 -0.2145
  941CHOL    C2 8488   1.923   6.190   7.757 -0.0308  0.3021 -0.1547
  942PNCE   AM1 8489   4.887   8.879   5.698  0.2342 -0.3289  0.0065
  942PNCE   AM2 8490   4.717   8.799   5.331  0.2099  0.4443  0.0853
  942PNCE   T1A 8491   5.061   8.478   5.943  0.1399  0.0896 -0.2723
  942PNCE   C2A 8492   5.282   8.079   5.919  0.0890  0.4468 -0.3351
  942PNCE   C3A 8493   5.375   7.744   6.132 -0.1643 -0.2078 -0.3498
  942PNCE   C1B 8494   4.439   9.106   5.678  0.0054  0.1461  0.2646
  942PNCE   C2B 8495   4.378   9.587   5.735  0.0518  0.2024  0.3009
  942PNCE   C3B 8496   4.655   9.849   5.952  0.1007 -0.1599  0.1044
  942PNCE   D4B 8497   5.059  10.147   5.914  0.0988 -0.2032  0.1179
  942PNCE   C5B 8498   5.449   9.981   5.914 -0.0329  0.0523 -0.1504
  942PNCE   C6B 8499   5.550   9.528   6.101  0.4983  0.0310 -0.1938
  943PNCE   AM1 8500   6.196   8.487   5.328 -0.1024  0.1698 -0.0056
  943PNCE   AM2 8501   5.988   8.303   5.145 -0.3398 -0.0899 -0.2579
  943PNCE   T1A 8502   5.810   8.453   5.625  0.1894  0.2365  0.4517
  943PNCE   C2A 8503   5.554   8.486   5.917 -0.0843 -0.1101  0.0165
  943PNCE   C3A 8504   5.351   8.721   6.279  0.0872 -0.0697  0.1848
  943PNCE   C1B 8505   6.015   8.034   5.512 -0.3112  0.2256  0.0983
  943PNCE   C2B 8506   5.965   8.095   5.946  0.1940  0.1058  0.1164
  943PNCE   C3B 8507   6.025   8.075   6.359  0.2969 -0.0615 -0.0190
  943PNCE   D4B 8508   6.406   7.837   6.468  0.0838  0.1553  0.0070
  943PNCE   C5B 8509   6.397   7.556   6.819 -0.1081  0.2436 -0.2554
  943PNCE   C6B 8510   6.378   7.285   7.294 -0.0896 -0.1457  0.3470
  944PNCE   AM1 8511   1.582   8.690   5.584  0.1472 -0.4199 -0.1696
  944PNCE   AM2 8512   1.392   8.601   5.884 -0.1978 -0.0058  0.2408
  944PNCE   T1A 8513   1.520   9.137   5.810 -0.2677 -0.0859  0.0496
  944PNCE   C2A 8514   1.491   9.296   6.120 -0.1254 -0.1801 -0.0769
  944PNCE   C3A 8515   1.503   9.509   6.538  0.2007  0.1462  0.0359
  944PNCE   C1B 8516   1.508   8.500   6.273 -0.0708  0.0623  0.1853
  944PNCE   C2B 8517   1.692   8.062   6.448 -0.0391 -0.0424 -0.0623
  944PNCE   C3B 8518   1.762   7.895   6.873  0.2245 -0.0324  0.2721
  944PNCE   D4B 8519   1.780   7.570   7.164 -0.0169 -0.2629  0.3206
  944PNCE   C5B 8520   1.633   7.333   7.623  0.0329 -0.2188  0.0440
  944PNCE   C6B 8521   1.729   7.052   7.770 -0.4936 -0.1744 -0.1079
  945CHOL   ROH 8522  10.254  12.179   4.445 -0.2328 -0.0664  0.1290
  945CHOL    R1 8523  10.210  12.254   4.714 -0.1779 -0.0502  0.1343
  945CHOL    R2 8524  10.327  12.122   4.926 -0.1175 -0.0266  0.1207
  945CHOL    R3 8525  10.414  12.371   4.992 -0.1224 -0.0143  0.0777
  945CHOL    R4 8526  10.443  12.214   5.239 -0.1897  0.0544  0.1232
  945CHOL    R5 8527  10.336  12.403   5.217 -0.1736  0.0506  0.0481
  945CHOL    C1 8528  10.592  12.502   5.482 -0.2363  0.1130  0.0843
  945CHOL    C2 8529  10.404  12.389   5.835  0.4468  0.0189  0.0209
  946CHOL   ROH 8530   8.316  15.600   4.028 -0.0409  0.3627 -0.0420
  946CHOL    R1 8531   8.194  15.512   4.268  0.0003  0.2388 -0.0655
  946CHOL    R2 8532   8.310  15.324   4.435  0.0176  0.1363 -0.1941
  946CHOL    R3 8533   8.275  15.517   4.623  0.0715  0.0331 -0.0771
  946CHOL    R4 8534   8.327  15.272   4.776 -0.0151 -0.0848 -0.2246
  946CHOL    R5 8535   8.157  15.407   4.800  0.0256 -0.0414 -0.1509
  946CHOL    C1 8536   8.304  15.423   5.151  0.0165 -0.3104 -0.1326
  946CHOL    C2 8537   8.315  15.501   5.451 -0.0947 -0.1607  0.0456
  947XCA    COO 8538  12.082   9.149   4.402  0.2359  0.0291  0.1831
  947XCA     C1 8539  11.781   9.477   4.377 -0.1306 -0.1343 -0.2412
  947XCA     C2 8540  11.623   9.802   4.627  0.0568 -0.3819  0.1881
  947XCA     C3 8541  11.426  10.065   5.002 -0.2836  0.1477  0.0798
  947XCA     C4 8542  11.195  10.408   5.137 -0.2405 -0.1499  0.1803
  947XCA     C5 8543  11.140  10.792   5.271 -0.2507  0.1147 -0.1259
  947XCA     C6 8544  11.191  11.111   5.552 -0.1629 -0.1604 -0.3151
  948PNCE   AM1 8545   5.283  11.566   5.181  0.0029  0.0764  0.0618
  948PNCE   AM2 8546   4.942  11.506   5.153 -0.3625 -0.2437 -0.1698
  948PNCE   T1A 8547   5.529  11.459   5.579  0.2527 -0.1811  0.1053
  948PNCE   C2A 8548   5.511  11.661   6.126 -0.0290 -0.0259  0.3309
  948PNCE   C3A 8549   5.191  11.992   6.140 -0.0883  0.0415  0.1580
  948PNCE   C1B 8550   5.020  11.717   5.573 -0.4052  0.0471  0.0825
  948PNCE   C2B 8551   4.853  11.650   5.855  0.0774 -0.1596  0.1647
  948PNCE   C3B 8552   4.866  11.620   6.326 -0.0252 -0.0497  0.1262
  948PNCE   D4B 8553   5.018  11.895   6.667  0.0374  0.1539 -0.0010
  948PNCE   C5B 8554   5.424  12.204   6.597 -0.0556  0.0618 -0.1182
  948PNCE   C6B 8555   5.782  12.452   6.343  0.0738 -0.0036  0.0363
  949XCA    COO 8556   5.824   4.837   4.878 -0.0039  0.1345 -0.0826
  949XCA     C1 8557   5.692   4.799   5.223  0.0126 -0.0146  0.3009
  949XCA     C2 8558   5.456   4.613   5.556  0.0469 -0.2078  0.0582
  949XCA     C3 8559   5.402   4.142   5.760  0.0845 -0.4596  0.0017
  949XCA     C4 8560   5.308   3.796   6.130  0.4312 -0.0023 -0.3347
  949XCA     C5 8561   5.035   3.582   6.469 -0.3531  0.1176 -0.2748
  949XCA     C6 8562   4.655   3.588   6.432  0.0519  0.5127  0.0703
  950CHOL   ROH 8563  14.384   0.329   4.225  0.2327  0.1202 -0.0159
  950CHOL    R1 8564  14.458   0.382   4.493  0.1334  0.0383  0.0286
  950CHOL    R2 8565  14.291   0.329   4.707  0.1134 -0.1745 -0.0353
  950CHOL    R3 8566  14.505   0.188   4.798  0.1839 -0.0815 -0.0552
  950CHOL    R4 8567  14.340   0.234   5.036  0.0695 -0.3626 -0.0819
  950CHOL    R5 8568  14.552   0.282   5.013  0.0418 -0.1942  0.0245
  950CHOL    C1 8569  14.570   0.046   5.312  0.1101 -0.3849 -0.1278
  950CHOL    C2 8570  14.572  -0.287   5.430  0.1911  0.0631 -0.4957
  951CHOL   ROH 8571   2.325   3.368   8.481  0.1394 -0.1461  0.2079
  951CHOL    R1 8572   2.318   3.242   8.227  0.0787 -0.0759  0.1736
  951CHOL    R2 8573   2.232   3.371   7.999 -0.0216 -0.0244  0.2349
  951CHOL    R3 8574   2.474   3.294   7.903 -0.0364  0.0472  0.1391
  951CHOL    R4 8575   2.333   3.403   7.670 -0.0747  0.1732  0.2361
  951CHOL    R5 8576   2.426   3.206   7.685 -0.0637  0.1755  0.0985
  951CHOL    C1 8577   2.619   3.348   7.388 -0.1196  0.3555  0.1470
  951CHOL    C2 8578   2.460   3.375   7.035 -0.2483  0.0465 -0.3059
  952XCA    COO 8579   4.745  14.620   5.165 -0.0253  0.0401  0.2413
  952XCA     C1 8580   5.001  14.944   5.441  0.0495  0.0577 -0.1905
  952XCA     C2 8581   4.891  15.309   5.658  0.1361 -0.2690  0.1829
  952XCA     C3 8582   5.030  15.627   5.989 -0.1340 -0.2518 -0.0614
  952XCA     C4 8583   4.951  15.823   6.365 -0.1092 -0.0087  0.0104
  952XCA     C5 8584   5.037  15.840   6.753  0.2809  0.1040 -0.1180
  952XCA     C6 8585   5.203  15.473   7.000 -0.1676  0.1974  0.2148
  953CHOL   ROH 8586  10.577  14.208   5.328  0.0305 -0.2121  0.0666
  953CHOL    R1 8587  10.430  14.387   5.491 -0.0469 -0.1785 -0.0403
  953CHOL    R2 8588  10.531  14.491   5.726 -0.1905 -0.1977  0.0267
  953CHOL    R3 8589  10.468  14.729   5.610 -0.0603 -0.1835 -0.0190
  953CHOL    R4 8590  10.461  14.782   5.899 -0.5448 -0.2594 -0.0042
  953CHOL    R5 8591  10.301  14.823   5.755 -0.3262 -0.2625 -0.2593
  953CHOL    C1 8592  10.360  15.174   5.891 -0.6288 -0.2819 -0.0651
  953CHOL    C2 8593  10.535  15.465   6.232 -0.1194  0.0648  0.2513
  954PNCE   AM1 8594  10.005  11.557   4.829 -0.3584 -0.1277 -0.0624
  954PNCE   AM2 8595  10.112  11.755   4.640 -0.0262  0.3938 -0.0018
  954PNCE   T1A 8596   9.644  11.803   5.081 -0.3417 -0.0710  0.1576
  954PNCE   C2A 8597   9.477  12.019   5.436 -0.0044  0.0273  0.1107
  954PNCE   C3A 8598   9.291  12.432   5.685 -0.0536  0.0212 -0.0145
  954PNCE   C1B 8599  10.519  11.539   4.782  0.0905 -0.1650 -0.0381
  954PNCE   C2B 8600  10.983  11.455   4.609 -0.2507 -0.1780  0.0935
  954PNCE   C3B 8601  11.204  11.172   4.455  0.0993 -0.2387  0.2765
  954PNCE   D4B 8602  11.608  11.079   4.535  0.0568  0.1537 -0.0372
  954PNCE   C5B 8603  11.922  11.352   4.841 -0.0277 -0.2534  0.1202
  954PNCE   C6B 8604  12.271  11.401   4.981 -0.1818  0.1002 -0.1707
  955XCA    COO 8605   7.319   4.227   4.112  0.2033 -0.1047  0.1326
  955XCA     C1 8606   7.040   3.958   4.396 -0.2826 -0.0581  0.2468
  955XCA     C2 8607   6.872   3.714   4.792 -0.1309  0.1074 -0.0505
  955XCA     C3 8608   6.811   3.442   5.077 -0.2812 -0.1586  0.0029
  955XCA     C4 8609   6.851   3.337   5.470  0.1142 -0.0246  0.0792
  955XCA     C5 8610   7.088   3.343   5.932 -0.2009  0.4789 -0.0213
  955XCA     C6 8611   7.530   3.314   5.999 -0.1178  0.0727 -0.1897
  956PNCE   AM1 8612   2.198   3.899   4.820  0.0099 -0.0678  0.1188
  956PNCE   AM2 8613   2.390   4.018   5.021 -0.1220  0.0457 -0.1238
  956PNCE   T1A 8614   2.373   3.537   5.076  0.0094  0.1163 -0.3988
  956PNCE   C2A 8615   2.715   3.574   5.384  0.1947 -0.2214  0.1648
  956PNCE   C3A 8616   2.954   3.759   5.711 -0.0787 -0.0801 -0.2602
  956PNCE   C1B 8617   2.525   4.108   5.471  0.1491 -0.0345  0.2785
  956PNCE   C2B 8618   2.581   4.071   6.017  0.1704 -0.2589  0.2431
  956PNCE   C3B 8619   2.886   3.922   6.365 -0.0061 -0.0706 -0.2166
  956PNCE   D4B 8620   3.283   3.950   6.576  0.0891 -0.0414 -0.0764
  956PNCE   C5B 8621   3.571   4.090   6.908  0.1643 -0.0081 -0.0640
  956PNCE   C6B 8622   3.976   4.229   7.076  0.0320  0.2329 -0.2501
  957CHOL   ROH 8623   7.235  14.727   8.463 -0.0884 -0.1344 -0.0189
  957CHOL    R1 8624   7.344  14.616   8.226 -0.2231  0.0010 -0.1467
  957CHOL    R2 8625   7.256  14.689   7.974 -0.0317  0.5179 -0.0771
  957CHOL    R3 8626   7.520  14.740   7.933  0.0798  0.1083  0.0751
  957CHOL    R4 8627   7.417  14.665   7.669  0.0500  0.5013 -0.0328
  957CHOL    R5 8628   7.588  14.577   7.771 -0.1332  0.1224 -0.0335
  957CHOL    C1 8629   7.759  14.700   7.453  0.2023  0.1071  0.1359
  957CHOL    C2 8630   7.519  14.650   7.146 -0.0121  0.1416 -0.3155
  958PNCE   AM1 8631   3.842  14.158   8.187 -0.3114 -0.1937 -0.0513
  958PNCE   AM2 8632   4.302  14.289   8.180  0.1386 -0.0046  0.2005
  958PNCE   T1A 8633   3.809  14.174   7.758 -0.0545 -0.0531  0.0793
  958PNCE   C2A 8634   3.847  14.059   7.370  0.2315 -0.2237 -0.0994
  958PNCE   C3A 8635   3.472  14.031   7.110  0.1514 -0.3415 -0.0132
  958PNCE   C1B 8636   4.325  14.074   7.836 -0.1483  0.1082 -0.1395
  958PNCE   C2B 8637   4.278  13.777   7.547 -0.0156 -0.1362  0.3070
  958PNCE   C3B 8638   4.148  13.529   7.209  0.2938  0.0130  0.0751
  958PNCE   D4B 8639   3.911  13.130   7.278  0.1647  0.1614 -0.1302
  958PNCE   C5B 8640   3.665  13.063   6.933  0.3203  0.1133 -0.0032
  958PNCE   C6B 8641   3.301  13.186   6.652  0.0518 -0.0435 -0.0160
  959CHOL   ROH 8642   7.398   5.233   7.107  0.2611 -0.0079 -0.1298
  959CHOL    R1 8643   7.461   5.201   6.833  0.1169 -0.0789 -0.1568
  959CHOL    R2 8644   7.342   5.009   6.674 -0.0877 -0.0187 -0.0886
  959CHOL    R3 8645   7.282   5.222   6.516 -0.0149  0.0099 -0.0759
  959CHOL    R4 8646   7.314   4.998   6.329 -0.0006  0.0398 -0.0969
  959CHOL    R5 8647   7.416   5.190   6.320  0.0273  0.0216 -0.0443
  959CHOL    C1 8648   7.242   5.192   5.981  0.1185  0.1006 -0.0899
  959CHOL    C2 8649   7.257   5.318   5.560 -0.0925  0.0564  0.0238
  960CHOL   ROH 8650  14.779  13.074   8.230  0.2163  0.1254  0.1068
  960CHOL    R1 8651  14.873  13.088   7.963  0.1229 -0.0783  0.0615
  960CHOL    R2 8652  14.733  13.217   7.763  0.0822 -0.1788  0.0230
  960CHOL    R3 8653  14.968  13.350   7.729  0.1036 -0.2587 -0.1521
  960CHOL    R4 8654  14.870  13.303   7.457 -0.1382 -0.1881 -0.0798
  960CHOL    R5 8655  15.066  13.249   7.535 -0.0916 -0.2687 -0.2477
  960CHOL    C1 8656  15.170  13.477   7.248 -0.2466 -0.2685 -0.3040
  960CHOL    C2 8657  15.285  13.165   7.027  0.2379 -0.2292 -0.1541
  961PNCE   AM1 8658   4.173   1.574   4.647  0.0816  0.5486 -0.2130
  961PNCE   AM2 8659   4.311   1.789   4.908  0.0454  0.0718  0.1664
  961PNCE   T1A 8660   4.195   1.138   4.891 -0.0511  0.1229 -0.1308
  961PNCE   C2A 8661   4.371   0.956   5.310  0.1154  0.2961 -0.3621
  961PNCE   C3A 8662   4.265   0.618   5.571  0.0158  0.2070  0.2765
  961PNCE   C1B 8663   4.435   1.891   5.347 -0.2285 -0.1329  0.3326
  961PNCE   C2B 8664   4.409   1.907   5.792 -0.0944 -0.0539  0.1669
  961PNCE   C3B 8665   4.573   1.981   6.182  0.1848  0.0416 -0.3653
  961PNCE   D4B 8666   4.696   1.768   6.534  0.4362  0.1029  0.0088
  961PNCE   C5B 8667   4.780   1.393   6.423  0.0949 -0.0152  0.1188
  961PNCE   C6B 8668   4.738   1.142   6.188  0.0195 -0.0799  0.0826
  962CHOL   ROH 8669   0.976   5.240   5.390 -0.1182  0.0992 -0.0570
  962CHOL    R1 8670   1.212   5.106   5.468 -0.0961  0.1287 -0.0736
  962CHOL    R2 8671   1.366   5.188   5.682 -0.0661  0.1757 -0.1136
  962CHOL    R3 8672   1.332   4.931   5.764 -0.0344  0.1869 -0.0638
  962CHOL    R4 8673   1.542   5.037   5.939 -0.0175  0.2337 -0.1122
  962CHOL    R5 8674   1.552   4.856   5.818 -0.0206  0.2134 -0.0823
  962CHOL    C1 8675   1.611   4.708   6.165  0.0405  0.2781 -0.0647
  962CHOL    C2 8676   1.685   4.708   6.636  0.0339 -0.4818 -0.0045
  963PNCE   AM1 8677   1.172  10.742   5.001 -0.0104 -0.0308 -0.1762
  963PNCE   AM2 8678   0.909  10.787   5.156 -0.0984  0.1208  0.3860
  963PNCE   T1A 8679   1.542  10.742   5.322  0.1289  0.0029  0.4744
  963PNCE   C2A 8680   1.909  10.672   5.619  0.4296  0.1388 -0.1046
  963PNCE   C3A 8681   1.977  10.803   6.089 -0.2896 -0.0326  0.2884
  963PNCE   C1B 8682   0.530  10.672   5.307  0.0361 -0.1894 -0.3263
  963PNCE   C2B 8683   0.060  10.640   5.350 -0.4834 -0.0410 -0.1834
  963PNCE   C3B 8684  -0.258  10.357   5.146 -0.3678  0.2625 -0.2351
  963PNCE   D4B 8685  -0.686  10.321   5.194  0.1174 -0.1292 -0.3282
  963PNCE   C5B 8686  -0.855  10.123   5.470  0.0709  0.1548  0.0532
  963PNCE   C6B 8687  -1.115   9.865   5.758 -0.2240  0.3849 -0.0432
  964CHOL   ROH 8688   7.837   9.438   8.601 -0.1016  0.2605  0.2833
  964CHOL    R1 8689   7.754   9.560   8.359 -0.0881  0.0874  0.1908
  964CHOL    R2 8690   7.758   9.427   8.117  0.0506 -0.0439  0.2657
  964CHOL    R3 8691   7.497   9.501   8.109  0.0156 -0.1749  0.1418
  964CHOL    R4 8692   7.582   9.493   7.828  0.2372  0.1450  0.1915
  964CHOL    R5 8693   7.486   9.660   7.930  0.0701 -0.0030  0.2874
  964CHOL    C1 8694   7.233   9.600   7.651  0.3129  0.1319  0.0321
  964CHOL    C2 8695   7.114   9.802   7.337  0.0076 -0.0956  0.0327
  965XCA    COO 8696  11.993   8.045   8.741  0.1507  0.1524 -0.1296
  965XCA     C1 8697  11.562   8.037   8.625 -0.1383 -0.1418 -0.0244
  965XCA     C2 8698  11.400   7.984   8.108 -0.4033 -0.3355 -0.0131
  965XCA     C3 8699  11.123   7.797   7.695 -0.0099  0.3321 -0.0549
  965XCA     C4 8700  11.077   7.993   7.296 -0.0462 -0.2110 -0.1888
  965XCA     C5 8701  11.078   8.310   7.006  0.0610 -0.1564  0.2800
  965XCA     C6 8702  10.873   8.410   6.575 -0.2254 -0.1540 -0.0735
  966XCA    COO 8703   3.388   5.958   9.847 -0.0733  0.1782 -0.0621
  966XCA     C1 8704   3.257   5.824   9.462  0.1447  0.0399 -0.2339
  966XCA     C2 8705   2.964   5.646   9.038  0.0175  0.3294  0.1569
  966XCA     C3 8706   2.905   5.717   8.576  0.1166 -0.1360  0.1388
  966XCA     C4 8707   2.759   5.810   8.176 -0.1738  0.1253  0.2675
  966XCA     C5 8708   2.881   5.930   7.832 -0.0119  0.1336 -0.1610
  966XCA     C6 8709   3.123   6.283   7.760  0.4549 -0.0472  0.0895
  967PNCE   AM1 8710   1.553   1.980   4.506  0.1160  0.0385 -0.0341
  967PNCE   AM2 8711   1.200   1.985   4.502  0.2798 -0.1728 -0.0118
  967PNCE   T1A 8712   1.944   1.991   4.750  0.1987 -0.1905 -0.2468
  967PNCE   C2A 8713   2.032   2.004   5.152 -0.0316 -0.0093  0.2547
  967PNCE   C3A 8714   2.294   2.308   5.458 -0.0411  0.1485 -0.1521
  967PNCE   C1B 8715   1.121   1.934   4.912 -0.0125  0.1872 -0.2277
  967PNCE   C2B 8716   0.972   1.907   5.242  0.0633 -0.2515  0.0285
  967PNCE   C3B 8717   0.893   2.086   5.685 -0.1212  0.1340  0.2420
  967PNCE   D4B 8718   0.595   1.904   5.852 -0.0321 -0.0433 -0.0037
  967PNCE   C5B 8719   0.495   2.108   6.083  0.0921  0.1731 -0.1882
  967PNCE   C6B 8720   0.478   2.521   6.111 -0.0170 -0.3744  0.2769
  968PNCE   AM1 8721   8.020  13.705   4.560  0.1184  0.3594  0.2760
  968PNCE   AM2 8722   8.041  13.996   4.720 -0.3729 -0.1593 -0.1488
  968PNCE   T1A 8723   7.912  13.687   5.071 -0.1255  0.1372 -0.0856
  968PNCE   C2A 8724   8.036  13.458   5.483  0.0939  0.1299 -0.1441
  968PNCE   C3A 8725   8.183  13.695   5.832  0.1910 -0.1399  0.4287
  968PNCE   C1B 8726   8.106  14.116   5.275 -0.0642 -0.1078  0.0375
  968PNCE   C2B 8727   8.442  14.033   5.578  0.1468  0.2485  0.0164
  968PNCE   C3B 8728   8.672  13.732   5.919 -0.5851 -0.3786  0.2892
  968PNCE   D4B 8729   8.862  13.829   6.389 -0.0116 -0.1384 -0.0939
  968PNCE   C5B 8730   8.879  14.075   6.691  0.0702 -0.1579  0.0784
  968PNCE   C6B 8731   8.768  14.082   7.123 -0.3199 -0.1200  0.1812
  969PNCE   AM1 8732   4.439   8.150   5.526 -0.1606  0.1642 -0.0957
  969PNCE   AM2 8733   4.730   8.316   5.550 -0.0674 -0.0524  0.2504
  969PNCE   T1A 8734   4.144   8.143   5.938  0.1796 -0.1563 -0.0299
  969PNCE   C2A 8735   3.959   8.210   6.358  0.0732  0.2566 -0.0049
  969PNCE   C3A 8736   3.808   8.298   6.722 -0.0633  0.0985 -0.0264
  969PNCE   C1B 8737   4.770   7.958   5.974 -0.0333  0.0930 -0.0908
  969PNCE   C2B 8738   4.434   7.940   6.307 -0.0172  0.1010  0.1371
  969PNCE   C3B 8739   4.414   8.161   6.646  0.0488  0.2274 -0.0501
  969PNCE   D4B 8740   4.683   8.438   6.805  0.2160 -0.3953 -0.0235
  969PNCE   C5B 8741   4.820   8.757   6.590 -0.0397 -0.1991  0.0435
  969PNCE   C6B 8742   4.828   8.885   6.176 -0.1486 -0.2247 -0.1439
  970CHOL   ROH 8743  13.190  13.750   7.217 -0.2106  0.0236  0.1528
  970CHOL    R1 8744  13.453  13.746   7.319 -0.1833 -0.1462  0.0794
  970CHOL    R2 8745  13.603  13.975   7.352  0.0251 -0.2535 -0.0898
  970CHOL    R3 8746  13.627  13.884   7.607  0.0169 -0.1339 -0.0457
  970CHOL    R4 8747  13.871  14.041   7.561  0.0545 -0.2211 -0.1375
  970CHOL    R5 8748  13.861  13.835   7.631  0.0048 -0.1837 -0.0350
  970CHOL    C1 8749  14.049  13.994   7.922  0.0639 -0.0899 -0.1238
  970CHOL    C2 8750  14.071  14.304   8.044  0.2461 -0.0578  0.2631
  971PNCE   AM1 8751  13.387  14.100   4.249 -0.1718 -0.1428  0.0582
  971PNCE   AM2 8752  13.029  14.099   4.183 -0.0297 -0.2064 -0.2158
  971PNCE   T1A 8753  13.250  14.218   4.652  0.1430 -0.0298  0.1629
  971PNCE   C2A 8754  13.001  14.117   5.057 -0.0203  0.1678 -0.2467
  971PNCE   C3A 8755  12.896  13.938   5.455  0.0068 -0.3208 -0.3318
  971PNCE   C1B 8756  13.097  13.767   4.628 -0.2199 -0.1699  0.0202
  971PNCE   C2B 8757  12.936  13.564   4.969 -0.2634  0.0791 -0.3604
  971PNCE   C3B 8758  12.889  13.480   5.482  0.0293 -0.2240  0.1959
  971PNCE   D4B 8759  12.797  13.148   5.811 -0.1708 -0.1297 -0.1821
  971PNCE   C5B 8760  12.832  13.287   6.174 -0.1126 -0.0545  0.3827
  971PNCE   C6B 8761  12.670  13.394   6.556  0.1356 -0.2116 -0.1732
  972CHOL   ROH 8762  15.678   6.225   5.308  0.0821 -0.2633  0.0365
  972CHOL    R1 8763  15.787   6.310   5.555  0.0202  0.0394 -0.0364
  972CHOL    R2 8764  15.638   6.444   5.744 -0.1365 -0.0755 -0.0719
  972CHOL    R3 8765  15.726   6.246   5.908  0.2064  0.1402  0.0146
  972CHOL    R4 8766  15.596   6.438   6.087 -0.2953 -0.0895 -0.0914
  972CHOL    R5 8767  15.799   6.360   6.106 -0.1314  0.3416  0.0280
  972CHOL    C1 8768  15.654   6.248   6.440 -0.0660  0.1049 -0.0217
  972CHOL    C2 8769  15.398   6.362   6.833 -0.4502 -0.2450  0.0636
  973PNCE   AM1 8770   8.532   3.669   8.399 -0.0454  0.2849  0.0298
  973PNCE   AM2 8771   8.479   3.492   8.146  0.0837  0.0640 -0.0334
  973PNCE   T1A 8772   8.452   4.054   8.099 -0.1721 -0.2033  0.1768
  973PNCE   C2A 8773   8.098   4.327   8.020 -0.0077  0.1433 -0.1618
  973PNCE   C3A 8774   7.748   4.230   8.066 -0.0246 -0.1529 -0.0970
  973PNCE   C1B 8775   8.209   3.622   7.861 -0.1968 -0.0273 -0.1048
  973PNCE   C2B 8776   8.074   3.506   7.536  0.1396 -0.0103  0.2030
  973PNCE   C3B 8777   7.967   3.690   7.109 -0.1768 -0.0415 -0.0642
  973PNCE   D4B 8778   8.139   3.947   6.808 -0.0066  0.0419  0.1174
  973PNCE   C5B 8779   8.120   3.896   6.403  0.1585  0.3601  0.0248
  973PNCE   C6B 8780   8.451   3.817   6.185  0.0272  0.5069 -0.4120
  974XCA    COO 8781  11.899   5.781   5.539 -0.1054  0.1993 -0.0506
  974XCA     C1 8782  11.978   5.688   5.976  0.3851 -0.0954 -0.1899
  974XCA     C2 8783  11.753   5.599   6.347  0.1488  0.3235  0.0889
  974XCA     C3 8784  11.671   5.437   6.716  0.1583 -0.1508  0.3505
  974XCA     C4 8785  11.448   5.059   6.955  0.1136 -0.1139 -0.1494
  974XCA     C5 8786  11.026   5.145   7.213 -0.1839  0.2300 -0.1410
  974XCA     C6 8787  10.569   5.311   7.196 -0.1659  0.2719 -0.3500
  975CHOL   ROH 8788   2.706   0.550   8.611 -0.1168  0.1746 -0.0485
  975CHOL    R1 8789   2.914   0.626   8.436 -0.0515  0.0393 -0.0300
  975CHOL    R2 8790   3.172   0.672   8.523 -0.0600 -0.0064  0.0116
  975CHOL    R3 8791   3.235   0.490   8.332 -0.0675 -0.1015  0.0986
  975CHOL    R4 8792   3.473   0.660   8.353 -0.1163  0.0033 -0.0902
  975CHOL    R5 8793   3.363   0.613   8.171 -0.1706 -0.1481 -0.0246
  975CHOL    C1 8794   3.708   0.482   8.075 -0.1562 -0.0803 -0.0677
  975CHOL    C2 8795   3.866   0.812   7.822 -0.1603 -0.0361  0.0510
  976XCA    COO 8796  13.241   9.696   8.838 -0.0829 -0.1876  0.0831
  976XCA     C1 8797  13.499   9.891   8.500 -0.3955  0.0831  0.1511
  976XCA     C2 8798  13.568   9.905   8.074  0.2216  0.0822 -0.0786
  976XCA     C3 8799  13.805  10.013   7.665  0.0161 -0.1003  0.1664
  976XCA     C4 8800  14.025  10.133   7.298 -0.1526  0.5411  0.1305
  976XCA     C5 8801  14.198   9.876   6.972  0.2343  0.1537  0.0593
  976XCA     C6 8802  14.291   9.443   6.874 -0.2018 -0.1363 -0.0532
  977PNCE   AM1 8803   8.090  14.494   4.753  0.2851  0.0121  0.0712
  977PNCE   AM2 8804   8.311  14.740   4.663  0.1053  0.1358 -0.1196
  977PNCE   T1A 8805   7.906  14.637   5.151 -0.2357 -0.5071 -0.0133
  977PNCE   C2A 8806   7.963  14.924   5.583  0.0322 -0.1523  0.3931
  977PNCE   C3A 8807   8.130  15.198   5.865  0.0602 -0.2664 -0.1587
  977PNCE   C1B 8808   8.401  14.940   5.071  0.2713 -0.1432  0.3083
  977PNCE   C2B 8809   8.550  14.939   5.426 -0.3083  0.0703  0.2567
  977PNCE   C3B 8810   8.605  15.234   5.758  0.2860  0.0143  0.0263
  977PNCE   D4B 8811   8.964  15.326   6.090 -0.0595 -0.0832  0.4425
  977PNCE   C5B 8812   8.695  15.242   6.545  0.1288 -0.0594  0.1714
  977PNCE   C6B 8813   8.597  15.107   6.947 -0.0913 -0.0592  0.0508
  978XCA    COO 8814   6.937  13.848   5.198 -0.2961  0.0319  0.1394
  978XCA     C1 8815   7.406  13.902   5.217 -0.1882  0.0649  0.4097
  978XCA     C2 8816   7.763  13.940   5.533 -0.2134 -0.0196 -0.0947
  978XCA     C3 8817   8.000  14.181   5.792  0.2459  0.1650 -0.1136
  978XCA     C4 8818   8.346  14.142   6.150 -0.1508  0.0131 -0.2614
  978XCA     C5 8819   8.589  14.321   6.304  0.2645  0.6093  0.2600
  978XCA     C6 8820   8.948  14.459   6.363  0.1552  0.3400 -0.1531
  979PNCE   AM1 8821  10.073   4.353   4.560  0.1918 -0.3478  0.2667
  979PNCE   AM2 8822   9.838   4.694   4.498 -0.2654 -0.1431 -0.1023
  979PNCE   T1A 8823   9.745   4.275   4.870  0.0475 -0.1114  0.1333
  979PNCE   C2A 8824   9.482   4.316   5.298  0.0083  0.0071  0.0272
  979PNCE   C3A 8825   9.076   4.205   5.549 -0.0635 -0.1507  0.1453
  979PNCE   C1B 8826   9.626   5.003   4.718 -0.0186 -0.4842  0.3531
  979PNCE   C2B 8827   9.307   5.196   5.046  0.0101 -0.0152  0.0989
  979PNCE   C3B 8828   9.260   5.586   5.260 -0.0062 -0.1201  0.2352
  979PNCE   D4B 8829   9.164   5.970   5.411 -0.0687  0.3855  0.1492
  979PNCE   C5B 8830   9.301   6.221   5.745  0.0974  0.1481 -0.3693
  979PNCE   C6B 8831   9.509   6.048   6.155 -0.1721  0.3453  0.1684
  980PNCE   AM1 8832  12.279  12.746   4.102  0.0575 -0.0105  0.0182
  980PNCE   AM2 8833  12.185  13.081   3.988  0.2489 -0.0109 -0.0561
  980PNCE   T1A 8834  12.641  12.772   4.383  0.0370 -0.0822  0.2195
  980PNCE   C2A 8835  12.969  12.566   4.541  0.1520  0.0080  0.0369
  980PNCE   C3A 8836  13.170  12.687   4.937 -0.3857  0.0512 -0.2931
  980PNCE   C1B 8837  12.051  13.145   4.483 -0.2141 -0.2583  0.3353
  980PNCE   C2B 8838  12.034  12.981   4.903 -0.0614  0.0398  0.0338
  980PNCE   C3B 8839  12.235  12.760   5.181 -0.0700  0.1617  0.3136
  980PNCE   D4B 8840  11.934  12.726   5.492  0.0448 -0.2186  0.0671
  980PNCE   C5B 8841  12.126  12.380   5.738  0.0455 -0.1254  0.1403
  980PNCE   C6B 8842  12.377  12.220   6.045  0.0918 -0.2827 -0.1944
  981PNCE   AM1 8843  10.109   2.135   8.867  0.1545 -0.4865 -0.1547
  981PNCE   AM2 8844  10.347   1.900   8.931 -0.1520 -0.0979 -0.0586
  981PNCE   T1A 8845   9.934   2.250   8.502 -0.2378  0.0531 -0.1206
  981PNCE   C2A 8846   9.768   2.291   8.143 -0.1761  0.3509  0.2232
  981PNCE   C3A 8847   9.460   2.381   7.726  0.1499 -0.4395  0.1170
  981PNCE   C1B 8848  10.154   1.661   8.629 -0.2674 -0.1794  0.2579
  981PNCE   C2B 8849   9.760   1.805   8.623 -0.1835 -0.0391  0.1672
  981PNCE   C3B 8850   9.474   1.814   8.276 -0.0680 -0.0512 -0.2210
  981PNCE   D4B 8851   9.268   1.829   7.826  0.1364  0.3974 -0.0906
  981PNCE   C5B 8852   9.213   1.534   7.513 -0.2427  0.1094  0.0067
  981PNCE   C6B 8853   8.959   1.297   7.264 -0.0693 -0.0148  0.0892
  982CHOL   ROH 8854   6.693   6.238   8.726 -0.1823 -0.0052 -0.0004
  982CHOL    R1 8855   6.671   6.204   8.446 -0.1210 -0.0018 -0.0055
  982CHOL    R2 8856   6.523   6.374   8.286 -0.0895 -0.0025 -0.0350
  982CHOL    R3 8857   6.757   6.395   8.148 -0.0602  0.0038  0.0155
  982CHOL    R4 8858   6.552   6.493   7.963 -0.0086  0.1090  0.0127
  982CHOL    R5 8859   6.699   6.337   7.923 -0.0302  0.0956 -0.0167
  982CHOL    C1 8860   6.788   6.583   7.646  0.0662  0.1799  0.0879
  982CHOL    C2 8861   6.680   6.925   7.486  0.0016  0.2169 -0.0997
  983PNCE   AM1 8862  12.059   0.118   4.317  0.1304 -0.1706 -0.0103
  983PNCE   AM2 8863  11.889  -0.074   4.122  0.0388  0.3387 -0.3930
  983PNCE   T1A 8864  12.468   0.046   4.630  0.1614 -0.1206  0.1013
  983PNCE   C2A 8865  12.583   0.071   5.027 -0.2068  0.2399 -0.2032
  983PNCE   C3A 8866  12.314   0.164   5.324  0.1965 -0.0718  0.1302
  983PNCE   C1B 8867  11.861  -0.490   4.324  0.0029  0.0102 -0.0884
  983PNCE   C2B 8868  11.633  -0.931   4.587 -0.0913 -0.0551 -0.0552
  983PNCE   C3B 8869  11.676  -1.043   5.045  0.1189 -0.1306  0.4825
  983PNCE   D4B 8870  11.671  -1.109   5.461 -0.1820  0.0870 -0.0192
  983PNCE   C5B 8871  11.975  -1.020   5.796  0.0925  0.0386  0.1651
  983PNCE   C6B 8872  12.382  -0.861   5.986 -0.3154 -0.1532  0.2077
  984XCA    COO 8873   1.271  11.992   8.687 -0.0073  0.4593 -0.2246
  984XCA     C1 8874   0.988  11.835   8.335 -0.0382 -0.0294 -0.0431
  984XCA     C2 8875   1.026  12.089   7.879 -0.0535 -0.1010 -0.4702
  984XCA     C3 8876   1.218  12.008   7.528  0.0210 -0.2861  0.2325
  984XCA     C4 8877   1.432  11.835   7.208  0.0494  0.1239 -0.1398
  984XCA     C5 8878   1.718  11.627   7.095  0.1903  0.3588  0.2012
  984XCA     C6 8879   2.038  11.544   6.771  0.0576  0.1910 -0.2282
  985CHOL   ROH 8880   1.287   9.372   7.340  0.1048 -0.0427 -0.1530
  985CHOL    R1 8881   1.560   9.393   7.408  0.0856 -0.0156 -0.0836
  985CHOL    R2 8882   1.727   9.174   7.427  0.0739 -0.0121  0.0817
  985CHOL    R3 8883   1.879   9.315   7.251  0.1297 -0.1097  0.0512
  985CHOL    R4 8884   2.068   9.137   7.388  0.0787 -0.0697  0.1764
  985CHOL    R5 8885   2.085   9.354   7.369  0.1074 -0.0797  0.0807
  985CHOL    C1 8886   2.410   9.248   7.200  0.1339 -0.1948  0.2028
  985CHOL    C2 8887   2.660   8.902   7.157 -0.0501 -0.0381  0.0135
  986CHOL   ROH 8888  15.093   8.626   9.419 -0.0282 -0.0047 -0.0916
  986CHOL    R1 8889  15.258   8.516   9.217 -0.0242 -0.1190 -0.0285
  986CHOL    R2 8890  15.390   8.275   9.247 -0.0731 -0.1378  0.0839
  986CHOL    R3 8891  15.262   8.213   9.015 -0.0615 -0.2017  0.0957
  986CHOL    R4 8892  15.504   8.048   9.013 -0.0852 -0.2246  0.1631
  986CHOL    R5 8893  15.439   8.184   8.856 -0.0589 -0.2729  0.1169
  986CHOL    C1 8894  15.451   7.857   8.659 -0.0813 -0.3353  0.2202
  986CHOL    C2 8895  15.224   7.629   8.392 -0.0955  0.1153  0.0679
  987XCA    COO 8896   3.432   9.071   5.747 -0.3086 -0.0999 -0.1107
  987XCA     C1 8897   3.606   9.213   6.152  0.1006  0.0044  0.0277
  987XCA     C2 8898   3.630   9.381   6.583  0.1315  0.0580  0.0959
  987XCA     C3 8899   3.855   9.730   6.817 -0.0811  0.1159  0.0537
  987XCA     C4 8900   4.057   9.984   7.108  0.0467  0.0781 -0.1722
  987XCA     C5 8901   4.263  10.076   7.489 -0.0335 -0.0377  0.0628
  987XCA     C6 8902   4.141  10.086   7.944  0.0002  0.3894 -0.0719
  988PNCE   AM1 8903   1.646   0.267   4.449 -0.2727 -0.2135  0.2062
  988PNCE   AM2 8904   1.539   0.556   4.546  0.1165  0.3956 -0.0190
  988PNCE   T1A 8905   1.880   0.066   4.580 -0.0329  0.1755 -0.0769
  988PNCE   C2A 8906   2.083  -0.139   5.008 -0.1144 -0.1761  0.2626
  988PNCE   C3A 8907   2.035   0.044   5.416 -0.1284 -0.3546 -0.3285
  988PNCE   C1B 8908   1.297   0.448   4.962  0.1377  0.1930 -0.1769
  988PNCE   C2B 8909   1.170   0.089   5.271  0.0926  0.3139  0.1431
  988PNCE   C3B 8910   1.198   0.085   5.712 -0.0532 -0.0194  0.1669
  988PNCE   D4B 8911   1.262   0.171   6.076 -0.0284  0.1827  0.0984
  988PNCE   C5B 8912   1.710   0.233   6.123 -0.0986 -0.0304  0.1742
  988PNCE   C6B 8913   2.036  -0.131   5.940 -0.1849 -0.0616 -0.0652
  989CHOL   ROH 8914   6.443   4.237   7.577  0.0515  0.1048 -0.1152
  989CHOL    R1 8915   6.500   4.002   7.432  0.0364  0.0156  0.0218
  989CHOL    R2 8916   6.454   3.749   7.533 -0.0363  0.0788  0.1459
  989CHOL    R3 8917   6.313   3.717   7.302  0.0078 -0.0155  0.1307
  989CHOL    R4 8918   6.375   3.444   7.391 -0.1172  0.0174  0.3196
  989CHOL    R5 8919   6.417   3.530   7.195 -0.0366 -0.1240  0.2743
  989CHOL    C1 8920   6.196   3.236   7.093 -0.1229 -0.1067  0.4065
  989CHOL    C2 8921   6.205   3.050   6.751 -0.0178 -0.1764 -0.1286
  990CHOL   ROH 8922   6.135   0.239   7.026  0.0599  0.0988 -0.1163
  990CHOL    R1 8923   5.910   0.079   6.965  0.0309  0.1407 -0.1229
  990CHOL    R2 8924   5.804   0.063   6.711  0.1054  0.0703 -0.1532
  990CHOL    R3 8925   5.838  -0.204   6.748  0.0178  0.0753 -0.0328
  990CHOL    R4 8926   5.600  -0.183   6.577  0.1138  0.0690 -0.1625
  990CHOL    R5 8927   5.616  -0.291   6.766 -0.0117  0.1381 -0.1145
  990CHOL    C1 8928   5.515  -0.576   6.533  0.0366  0.0730 -0.0548
  990CHOL    C2 8929   5.148  -0.538   6.466  0.1562  0.2201  0.0894
  991CHOL   ROH 8930   3.900  12.283   8.864 -0.0393 -0.0068  0.0162
  991CHOL    R1 8931   3.906  12.360   8.591  0.0346  0.1409  0.0588
  991CHOL    R2 8932   4.127  12.319   8.431 -0.0404 -0.0782  0.0147
  991CHOL    R3 8933   3.947  12.192   8.271 -0.2388  0.2636 -0.0447
  991CHOL    R4 8934   4.176  12.251   8.095  0.0563 -0.3747  0.0853
  991CHOL    R5 8935   3.967  12.305   8.059  0.1942  0.1163 -0.0959
  991CHOL    C1 8936   4.036  12.093   7.750 -0.0736 -0.2265  0.0705
  991CHOL    C2 8937   4.423  12.094   7.759  0.0553 -0.2388  0.4499
  992CHOL   ROH 8938   6.890  14.780   6.105 -0.0770  0.0863 -0.0302
  992CHOL    R1 8939   6.811  15.006   6.256  0.0067  0.0827  0.0203
  992CHOL    R2 8940   6.654  14.986   6.483 -0.0625  0.0962 -0.0238
  992CHOL    R3 8941   6.857  15.126   6.596 -0.0134 -0.0501  0.0697
  992CHOL    R4 8942   6.647  15.124   6.800 -0.1126  0.1173 -0.0342
  992CHOL    R5 8943   6.749  15.299   6.721  0.0566  0.0368  0.0079
  992CHOL    C1 8944   6.834  15.335   7.091 -0.0957 -0.0079  0.0475
  992CHOL    C2 8945   7.171  15.497   7.389  0.2873 -0.0986 -0.2128
  993CHOL   ROH 8946   5.227  15.825   7.434  0.0739 -0.0510 -0.0610
  993CHOL    R1 8947   5.404  15.989   7.582 -0.0120 -0.0458  0.0371
  993CHOL    R2 8948   5.535  16.205   7.471  0.0228 -0.0261  0.1168
  993CHOL    R3 8949   5.422  16.339   7.679 -0.0892 -0.0509  0.0723
  993CHOL    R4 8950   5.594  16.537   7.547 -0.1952  0.0300  0.0477
  993CHOL    R5 8951   5.596  16.483   7.758 -0.1878  0.0781  0.0615
  993CHOL    C1 8952   5.523  16.856   7.786 -0.4275  0.0394 -0.0342
  993CHOL    C2 8953   5.666  17.131   8.092 -0.0483  0.0198 -0.1615
  994CHOL   ROH 8954   6.479   4.620   4.868  0.1419  0.0450  0.0851
  994CHOL    R1 8955   6.538   4.531   5.130  0.0270  0.2017  0.1659
  994CHOL    R2 8956   6.398   4.619   5.352 -0.2481  0.1351  0.0246
  994CHOL    R3 8957   6.363   4.353   5.395  0.0014  0.1091  0.0868
  994CHOL    R4 8958   6.374   4.470   5.663 -0.4430  0.2324  0.0573
  994CHOL    R5 8959   6.495   4.305   5.589 -0.1678  0.3355  0.2630
  994CHOL    C1 8960   6.326   4.133   5.884 -0.3221  0.2647  0.1346
  994CHOL    C2 8961   6.444   3.859   6.181  0.0976 -0.1221 -0.1458
  995PNCE   AM1 8962   0.994   4.250   5.389  0.4110  0.1226  0.2021
  995PNCE   AM2 8963   1.215   4.083   5.104  0.0239  0.0258  0.1734
  995PNCE   T1A 8964   0.961   3.934   5.667 -0.2248 -0.0449  0.0713
  995PNCE   C2A 8965   1.162   3.735   6.011  0.1173 -0.3681  0.1344
  995PNCE   C3A 8966   1.043   3.897   6.449 -0.1769  0.1307 -0.1451
  995PNCE   C1B 8967   1.385   4.045   5.435 -0.0590  0.3239 -0.3681
  995PNCE   C2B 8968   1.652   4.149   5.799 -0.0865 -0.2470 -0.2487
  995PNCE   C3B 8969   1.547   4.062   6.243  0.3307 -0.1609  0.3376
  995PNCE   D4B 8970   1.574   3.845   6.604  0.0090  0.2327 -0.2376
  995PNCE   C5B 8971   1.288   3.734   6.912 -0.1539  0.1170 -0.4112
  995PNCE   C6B 8972   1.079   3.667   7.232  0.0360  0.2540 -0.4161
  996CHOL   ROH 8973   4.621  11.893   9.061  0.4864 -0.0088  0.0154
  996CHOL    R1 8974   4.540  11.909   8.791  0.1263 -0.2747  0.1014
  996CHOL    R2 8975   4.618  12.115   8.623 -0.5314 -0.1401 -0.0618
  996CHOL    R3 8976   4.702  11.911   8.465 -0.2528 -0.0044 -0.0964
  996CHOL    R4 8977   4.767  12.154   8.314 -0.2671  0.1310  0.0937
  996CHOL    R5 8978   4.651  11.983   8.242 -0.0967  0.0882 -0.1080
  996CHOL    C1 8979   4.933  11.985   7.985  0.1484  0.4165  0.1518
  996CHOL    C2 8980   4.908  12.139   7.595  0.0516 -0.1614  0.1172
  997PNCE   AM1 8981  12.322  13.684   4.154  0.0987 -0.1613 -0.0732
  997PNCE   AM2 8982  12.584  13.924   4.235 -0.3377  0.1063  0.3230
  997PNCE   T1A 8983  12.025  13.662   4.530  0.3164 -0.2125 -0.0720
  997PNCE   C2A 8984  11.806  13.432   4.891  0.1357 -0.0886  0.0476
  997PNCE   C3A 8985  12.042  13.346   5.218 -0.4078 -0.2312  0.1963
  997PNCE   C1B 8986  12.645  13.917   4.747  0.3115  0.0654  0.0234
  997PNCE   C2B 8987  12.495  14.256   5.131 -0.0386  0.1679 -0.5433
  997PNCE   C3B 8988  12.448  14.153   5.629 -0.4049  0.2194 -0.3980
  997PNCE   D4B 8989  12.362  14.116   6.017 -0.1402 -0.0747  0.0071
  997PNCE   C5B 8990  12.156  13.989   6.465  0.0183 -0.0883 -0.1617
  997PNCE   C6B 8991  11.857  13.874   6.691  0.0614 -0.2725  0.0409
  998PNCE   AM1 8992   0.475   9.418   5.030  0.3417 -0.1749  0.1236
  998PNCE   AM2 8993   0.247   9.368   5.235  0.2052  0.0820 -0.3055
  998PNCE   T1A 8994   0.824   9.306   5.353  0.1456 -0.0738  0.1216
  998PNCE   C2A 8995   1.091   9.451   5.726 -0.3072  0.1677 -0.0255
  998PNCE   C3A 8996   1.547   9.766   5.804  0.0822  0.0996  0.0310
  998PNCE   C1B 8997   0.197   9.342   5.684  0.4749 -0.1959 -0.1261
  998PNCE   C2B 8998   0.215   9.304   6.145 -0.1854 -0.0833 -0.0416
  998PNCE   C3B 8999   0.282   9.072   6.486  0.1877  0.2114  0.0594
  998PNCE   D4B 9000   0.689   9.012   6.586 -0.2820 -0.2239  0.0679
  998PNCE   C5B 9001   0.721   8.977   6.089  0.0209 -0.4179  0.0248
  998PNCE   C6B 9002   1.057   8.945   5.928  0.0439  0.0019 -0.1000
  999CHOL   ROH 9003  11.414   8.527   8.328 -0.0169  0.2298  0.1752
  999CHOL    R1 9004  11.202   8.634   8.173 -0.0464  0.3086  0.2688
  999CHOL    R2 9005  11.208   8.891   8.072  0.0753  0.2546  0.1360
  999CHOL    R3 9006  11.161   8.764   7.836 -0.1841  0.1680  0.2302
  999CHOL    R4 9007  11.139   9.049   7.772  0.3040  0.1743  0.0388
  999CHOL    R5 9008  10.991   8.894   7.730  0.0230  0.3979  0.1704
  999CHOL    C1 9009  11.055   9.022   7.376  0.1936  0.0463  0.0706
  999CHOL    C2 9010  11.322   9.260   7.002 -0.1813 -0.0826 -0.0089
 1000CHOL   ROH 9011   9.439   3.924   7.990  0.0599  0.2113  0.0662
 1000CHOL    R1 9012   9.308   4.160   7.906  0.0933  0.1942 -0.0333
 1000CHOL    R2 9013   9.366   4.285   7.666  0.1137  0.0865 -0.0818
 1000CHOL    R3 9014   9.099   4.261   7.626  0.1107  0.1094 -0.0783
 1000CHOL    R4 9015   9.184   4.466   7.435  0.1330  0.1034 -0.0841
 1000CHOL    R5 9016   9.024   4.484   7.582  0.1335  0.1196 -0.0800
 1000CHOL    C1 9017   8.826   4.548   7.262  0.1414  0.1348 -0.0821
 1000CHOL    C2 9018   8.590   4.718   6.901 -0.0440  0.1125 -0.2653
 1001XCA    COO 9019   3.412   9.746   9.477  0.0249  0.0539 -0.0119
 1001XCA     C1 9020   3.709   9.763   9.096 -0.0801 -0.0558  0.3008
 1001XCA     C2 9021   4.013  10.080   8.781 -0.1211  0.1309  0.1539
 1001XCA     C3 9022   4.256   9.887   8.512 -0.0565  0.4275  0.2246
 1001XCA     C4 9023   4.455   9.622   8.317 -0.2163  0.1913  0.1131
 1001XCA     C5 9024   4.838   9.411   8.004 -0.1422 -0.3578  0.0391
 1001XCA     C6 9025   5.226   9.294   7.806  0.0791 -0.1150 -0.3488
 1002CHOL   ROH 9026   5.165  15.763   5.030 -0.2069 -0.0547 -0.0906
 1002CHOL    R1 9027   5.305  15.655   5.251 -0.1417  0.0334 -0.0890
 1002CHOL    R2 9028   5.475  15.807   5.408 -0.1356  0.1069 -0.1702
 1002CHOL    R3 9029   5.319  15.714   5.610 -0.0743  0.1384 -0.1075
 1002CHOL    R4 9030   5.589  15.725   5.724  0.0403 -0.2288 -0.3160
 1002CHOL    R5 9031   5.456  15.552   5.722 -0.1509 -0.0882 -0.3289
 1002CHOL    C1 9032   5.509  15.590   6.097  0.2004 -0.3947 -0.3421
 1002CHOL    C2 9033   5.657  15.170   6.142 -0.0596  0.0861 -0.1577
 1003PNCE   AM1 9034   3.808   6.563   5.406 -0.2664 -0.0537 -0.0804
 1003PNCE   AM2 9035   3.826   6.348   5.589  0.1738  0.2594  0.1155
 1003PNCE   T1A 9036   3.795   6.813   5.770 -0.3906  0.1042 -0.3090
 1003PNCE   C2A 9037   3.987   6.791   6.170 -0.4464  0.2717 -0.2434
 1003PNCE   C3A 9038   3.934   7.011   6.558 -0.0324 -0.4250 -0.1979
 1003PNCE   C1B 9039   3.688   6.364   5.930 -0.4417 -0.0479  0.2154
 1003PNCE   C2B 9040   3.720   6.286   6.298  0.0091  0.0526 -0.1243
 1003PNCE   C3B 9041   3.576   6.007   6.679  0.0013  0.1544  0.2933
 1003PNCE   D4B 9042   3.069   6.024   6.813  0.1652 -0.1555  0.4006
 1003PNCE   C5B 9043   2.867   6.064   6.449 -0.0167 -0.0002  0.0226
 1003PNCE   C6B 9044   2.737   5.777   6.061 -0.0838 -0.1848 -0.0603
 1004CHOL   ROH 9045  13.883   9.009   8.272  0.2065  0.0634  0.0643
 1004CHOL    R1 9046  14.059   9.093   8.066  0.1233 -0.1040 -0.0779
 1004CHOL    R2 9047  14.126   8.931   7.853 -0.1435 -0.1969 -0.0958
 1004CHOL    R3 9048  14.040   9.142   7.706 -0.0960 -0.1636 -0.0762
 1004CHOL    R4 9049  14.103   8.935   7.508 -0.2416 -0.1948 -0.0894
 1004CHOL    R5 9050  14.179   9.139   7.511 -0.1539 -0.2271 -0.1162
 1004CHOL    C1 9051  14.008   9.136   7.170 -0.2541 -0.1625 -0.0671
 1004CHOL    C2 9052  13.879   9.038   6.925 -0.2366 -0.0778 -0.3806
 1005PNCE   AM1 9053   7.762   7.888   5.132 -0.0927  0.1643  0.1171
 1005PNCE   AM2 9054   7.433   7.991   5.133  0.2248 -0.0380 -0.1273
 1005PNCE   T1A 9055   7.892   7.887   5.530 -0.0159  0.1187  0.0329
 1005PNCE   C2A 9056   7.875   8.029   5.938 -0.3409 -0.3130 -0.1298
 1005PNCE   C3A 9057   7.824   8.229   6.320  0.1559 -0.3533 -0.2019
 1005PNCE   C1B 9058   7.432   8.057   5.616  0.5158 -0.1832  0.0955
 1005PNCE   C2B 9059   7.042   7.920   5.853 -0.2623  0.0376 -0.0433
 1005PNCE   C3B 9060   6.838   7.647   6.194  0.1497 -0.3247  0.1594
 1005PNCE   D4B 9061   6.885   7.441   6.555  0.2647  0.0029  0.0767
 1005PNCE   C5B 9062   7.163   7.203   6.854  0.0631  0.1538  0.0899
 1005PNCE   C6B 9063   7.073   6.946   7.171  0.1433  0.0855 -0.2120
 1006PNCE   AM1 9064   7.356   4.932   4.830  0.1411 -0.1465  0.1144
 1006PNCE   AM2 9065   7.495   4.650   4.896  0.1222 -0.0622 -0.0029
 1006PNCE   T1A 9066   7.442   5.232   5.103 -0.1355  0.1116  0.1769
 1006PNCE   C2A 9067   7.391   5.681   5.244 -0.0696 -0.1500 -0.3523
 1006PNCE   C3A 9068   7.648   6.056   5.238  0.0245 -0.1497  0.3304
 1006PNCE   C1B 9069   7.325   4.584   5.286  0.1300 -0.1355 -0.3166
 1006PNCE   C2B 9070   7.273   4.787   5.621 -0.2383 -0.2149 -0.0660
 1006PNCE   C3B 9071   7.300   4.683   6.007 -0.0350  0.5831  0.0503
 1006PNCE   D4B 9072   7.579   4.626   6.350  0.1254  0.1211 -0.1787
 1006PNCE   C5B 9073   7.781   4.864   6.579 -0.0137 -0.3283  0.1379
 1006PNCE   C6B 9074   8.121   5.009   6.877 -0.0681 -0.2192  0.2988
 1007PNCE   AM1 9075   5.745  15.853   4.761 -0.1213 -0.2983  0.0996
 1007PNCE   AM2 9076   5.788  15.558   4.936 -0.0945  0.0235  0.0027
 1007PNCE   T1A 9077   5.541  16.107   5.066 -0.1412 -0.1310  0.0673
 1007PNCE   C2A 9078   5.239  16.191   5.428 -0.2935 -0.3238  0.1358
 1007PNCE   C3A 9079   5.222  16.125   5.872  0.0778  0.2550 -0.3624
 1007PNCE   C1B 9080   5.684  15.388   5.354 -0.3484 -0.0360  0.0866
 1007PNCE   C2B 9081   5.998  15.481   5.589  0.1714  0.2365 -0.1001
 1007PNCE   C3B 9082   5.967  15.691   6.013 -0.1397 -0.0194  0.0587
 1007PNCE   D4B 9083   5.909  15.539   6.338  0.4924  0.1441  0.0365
 1007PNCE   C5B 9084   6.003  15.167   6.483 -0.2791  0.1208  0.0101
 1007PNCE   C6B 9085   6.282  14.779   6.740  0.1984 -0.1990  0.2801
 1008CHOL   ROH 9086  12.053   6.674   5.472 -0.0145  0.1392 -0.1064
 1008CHOL    R1 9087  12.048   6.547   5.725 -0.0003  0.1472 -0.1015
 1008CHOL    R2 9088  12.244   6.587   5.916  0.0285  0.1299 -0.1233
 1008CHOL    R3 9089  12.031   6.651   6.073  0.0530  0.1615 -0.1038
 1008CHOL    R4 9090  12.255   6.619   6.260  0.0526  0.0957 -0.1213
 1008CHOL    R5 9091  12.061   6.519   6.270  0.0336  0.1385 -0.1188
 1008CHOL    C1 9092  12.062   6.697   6.607  0.0895  0.1055 -0.1018
 1008CHOL    C2 9093  12.151   6.541   6.941 -0.0273  0.1981 -0.2969
 1009CHOL   ROH 9094  10.138  12.058   7.181 -0.1525 -0.0581 -0.0773
 1009CHOL    R1 9095   9.977  11.896   7.013 -0.0161 -0.2201 -0.0539
 1009CHOL    R2 9096   9.886  11.981   6.766 -0.3692 -0.1981  0.0798
 1009CHOL    R3 9097  10.004  11.753   6.680 -0.0415  0.0578 -0.1788
 1009CHOL    R4 9098   9.797  11.808   6.481 -0.1860 -0.0564 -0.0662
 1009CHOL    R5 9099   9.825  11.622   6.591  0.1262 -0.1301 -0.2529
 1009CHOL    C1 9100   9.857  11.492   6.234  0.2284  0.2665 -0.3938
 1009CHOL    C2 9101   9.770  11.310   6.022 -0.0770  0.0937  0.1399
 1010CHOL   ROH 9102  14.762   8.662   7.438  0.2325  0.0733 -0.1126
 1010CHOL    R1 9103  14.711   8.760   7.177  0.1252  0.0809 -0.0895
 1010CHOL    R2 9104  14.538   8.635   7.002  0.0962  0.0543 -0.0422
 1010CHOL    R3 9105  14.423   8.881   6.992  0.0367  0.0292  0.0130
 1010CHOL    R4 9106  14.366   8.761   6.730  0.0125  0.0499  0.0084
 1010CHOL    R5 9107  14.460   8.955   6.767 -0.0250  0.0671  0.0149
 1010CHOL    C1 9108  14.157   9.065   6.562 -0.0920  0.0237  0.0897
 1010CHOL    C2 9109  14.087   9.220   6.331  0.0808  0.1998  0.1969
 1011XCA    COO 9110   4.218  10.663   9.169 -0.1998  0.0843  0.1719
 1011XCA     C1 9111   4.233  10.561   8.778  0.2172  0.0301 -0.0964
 1011XCA     C2 9112   4.370  10.424   8.446  0.3020 -0.0404 -0.1825
 1011XCA     C3 9113   4.607  10.114   8.208  0.1077  0.0226  0.0141
 1011XCA     C4 9114   4.999   9.899   8.181  0.0160  0.1966 -0.2811
 1011XCA     C5 9115   5.149   9.811   7.698  0.0431  0.2217 -0.0151
 1011XCA     C6 9116   5.312  10.001   7.308 -0.0267 -0.1077 -0.0626
 1012PNCE   AM1 9117   5.093   6.949   4.854 -0.2536 -0.2123  0.0781
 1012PNCE   AM2 9118   5.287   7.252   4.858 -0.2260 -0.3628 -0.2914
 1012PNCE   T1A 9119   5.181   6.820   5.316  0.0374  0.0407  0.2005
 1012PNCE   C2A 9120   5.421   6.851   5.669  0.0617  0.0238  0.1417
 1012PNCE   C3A 9121   5.651   6.741   5.988 -0.2672  0.2604 -0.1007
 1012PNCE   C1B 9122   5.620   7.240   5.147  0.1615 -0.1366  0.3786
 1012PNCE   C2B 9123   5.837   7.139   5.527 -0.0432  0.2028 -0.1780
 1012PNCE   C3B 9124   5.930   7.153   5.903  0.0301  0.1861 -0.0118
 1012PNCE   D4B 9125   5.898   7.103   6.252  0.2136  0.2193  0.0506
 1012PNCE   C5B 9126   5.930   6.706   6.523  0.0876 -0.0870  0.0345
 1012PNCE   C6B 9127   5.914   6.275   6.542  0.1621  0.3373  0.2381
 1013CHOL   ROH 9128  13.586   5.656   6.200 -0.0459  0.0864 -0.1706
 1013CHOL    R1 9129  13.451   5.881   6.307 -0.0143  0.1012 -0.1587
 1013CHOL    R2 9130  13.371   5.895   6.571 -0.1408  0.0404 -0.1865
 1013CHOL    R3 9131  13.513   6.127   6.568 -0.0457 -0.0163 -0.0427
 1013CHOL    R4 9132  13.266   6.193   6.711 -0.0443  0.0259 -0.0848
 1013CHOL    R5 9133  13.348   6.298   6.539  0.0426  0.0674 -0.0094
 1013CHOL    C1 9134  13.339   6.584   6.791  0.1011 -0.0356  0.1092
 1013CHOL    C2 9135  13.108   6.866   6.885 -0.0469 -0.0397  0.3789
 1014PNCE   AM1 9136   1.674   6.575   5.173  0.0362  0.1012  0.3880
 1014PNCE   AM2 9137   1.726   6.205   5.080  0.2191 -0.0059  0.0019
 1014PNCE   T1A 9138   1.562   6.443   5.562  0.1945 -0.0536  0.3336
 1014PNCE   C2A 9139   1.466   6.644   5.965  0.1355 -0.0802  0.0834
 1014PNCE   C3A 9140   1.603   6.642   6.348  0.1288  0.0790 -0.1310
 1014PNCE   C1B 9141   1.546   5.981   5.380  0.0669  0.0919 -0.2148
 1014PNCE   C2B 9142   1.518   5.794   5.837  0.0876 -0.1447  0.2407
 1014PNCE   C3B 9143   1.759   5.594   6.133  0.1613  0.1581  0.0110
 1014PNCE   D4B 9144   1.695   5.699   6.585  0.1940 -0.3993  0.1673
 1014PNCE   C5B 9145   1.303   5.667   6.780  0.0906 -0.3556 -0.0529
 1014PNCE   C6B 9146   1.024   5.518   7.224 -0.0292  0.1263  0.0155
 1015XCA    COO 9147  13.332  13.729   8.426  0.0844 -0.4900 -0.3621
 1015XCA     C1 9148  13.291  13.920   8.010 -0.0366  0.2381  0.0415
 1015XCA     C2 9149  13.182  14.105   7.591  0.0929  0.2619 -0.3434
 1015XCA     C3 9150  13.271  14.240   7.219 -0.0260 -0.2590 -0.3113
 1015XCA     C4 9151  13.665  14.304   6.953  0.2414 -0.0833 -0.1329
 1015XCA     C5 9152  14.065  14.443   6.989 -0.1383  0.0059  0.4111
 1015XCA     C6 9153  14.136  14.464   7.406 -0.0777  0.0040  0.0426
 1016CHOL   ROH 9154  10.417  10.204   4.711  0.1844  0.0676  0.0457
 1016CHOL    R1 9155  10.259  10.174   4.944  0.2916  0.0504  0.1171
 1016CHOL    R2 9156  10.336  10.275   5.190  0.2473  0.3354  0.0178
 1016CHOL    R3 9157  10.093  10.396   5.180  0.0918  0.0304 -0.0030
 1016CHOL    R4 9158  10.159  10.385   5.466  0.1761  0.2923 -0.0103
 1016CHOL    R5 9159   9.976  10.311   5.372  0.2415  0.0061  0.0784
 1016CHOL    C1 9160   9.827  10.562   5.617 -0.0113 -0.0189 -0.0464
 1016CHOL    C2 9161   9.780  10.835   5.870 -0.0588 -0.1166  0.1939
 1017XCA    COO 9162   5.743   0.898   4.594 -0.1528 -0.1873  0.0891
 1017XCA     C1 9163   5.759   0.824   5.001 -0.0894  0.0464  0.2010
 1017XCA     C2 9164   5.610   0.687   5.385  0.0893 -0.0060  0.0029
 1017XCA     C3 9165   5.327   0.751   5.662 -0.1571 -0.0380  0.2869
 1017XCA     C4 9166   5.539   0.668   6.192  0.0074  0.3895 -0.1659
 1017XCA     C5 9167   5.841   0.522   6.541  0.1260 -0.1174  0.0982
 1017XCA     C6 9168   5.688   0.465   6.978  0.0633 -0.4367  0.0240
 1018CHOL   ROH 9169   3.311   9.519   5.937 -0.1335 -0.1632  0.0674
 1018CHOL    R1 9170   3.241   9.791   5.978 -0.0827 -0.1283 -0.0610
 1018CHOL    R2 9171   2.981   9.883   5.957 -0.0775 -0.0929 -0.0687
 1018CHOL    R3 9172   3.028   9.977   6.207 -0.0183  0.0192 -0.1232
 1018CHOL    R4 9173   2.776  10.103   6.127 -0.0734 -0.0859 -0.0757
 1018CHOL    R5 9174   2.954  10.204   6.201 -0.0831 -0.0090 -0.1795
 1018CHOL    C1 9175   2.702  10.319   6.462 -0.0154  0.0236 -0.1308
 1018CHOL    C2 9176   2.755  10.382   6.776 -0.0440  0.0208 -0.2567
 1019PNCE   AM1 9177  14.331  12.738   4.177  0.2016 -0.0295 -0.0835
 1019PNCE   AM2 9178  13.976  12.478   4.093 -0.0016  0.1215 -0.1021
 1019PNCE   T1A 9179  14.279  12.631   4.772 -0.1853  0.1372  0.1237
 1019PNCE   C2A 9180  14.435  12.522   5.091  0.1076  0.2401  0.4640
 1019PNCE   C3A 9181  14.794  12.456   5.264  0.1071 -0.1279  0.1459
 1019PNCE   C1B 9182  13.878  12.368   4.532  0.1152  0.0480 -0.0499
 1019PNCE   C2B 9183  13.514  12.335   4.813  0.2856 -0.1895  0.1012
 1019PNCE   C3B 9184  13.412  12.167   5.208  0.0028 -0.1796 -0.1847
 1019PNCE   D4B 9185  13.171  12.204   5.559 -0.2232 -0.1214 -0.1642
 1019PNCE   C5B 9186  13.253  12.498   5.928  0.1097  0.1082  0.2941
 1019PNCE   C6B 9187  13.134  12.834   6.020 -0.1763 -0.1159  0.1661
 1020XCA    COO 9188   8.189   8.171   5.245  0.1823 -0.1020  0.2412
 1020XCA     C1 9189   8.359   8.163   5.642  0.2263 -0.0462 -0.1534
 1020XCA     C2 9190   8.550   8.349   6.004  0.1139  0.3861  0.0925
 1020XCA     C3 9191   8.787   8.190   6.291  0.0884 -0.5889 -0.0687
 1020XCA     C4 9192   8.884   7.875   6.584  0.0108  0.2549  0.0910
 1020XCA     C5 9193   8.912   7.399   6.732 -0.2717 -0.3206 -0.1955
 1020XCA     C6 9194   8.773   6.914   6.675  0.1759 -0.1701 -0.1531
 1021PNCE   AM1 9195  14.311  15.463   4.629  0.1147  0.1361  0.0872
 1021PNCE   AM2 9196  14.203  15.192   4.553  0.2017 -0.0467 -0.1339
 1021PNCE   T1A 9197  14.593  15.590   4.945 -0.0263  0.1063 -0.0953
 1021PNCE   C2A 9198  14.980  15.604   5.144 -0.0029 -0.0594 -0.0807
 1021PNCE   C3A 9199  15.092  15.696   5.566 -0.0679 -0.0976  0.0988
 1021PNCE   C1B 9200  14.425  15.055   4.980  0.2821 -0.1641 -0.0982
 1021PNCE   C2B 9201  14.681  15.129   5.374 -0.0673 -0.0012 -0.1294
 1021PNCE   C3B 9202  14.917  15.288   5.739 -0.0202 -0.0011  0.1651
 1021PNCE   D4B 9203  15.322  15.164   6.064  0.3518  0.3431  0.2410
 1021PNCE   C5B 9204  15.686  14.865   6.035  0.0496  0.0540 -0.0344
 1021PNCE   C6B 9205  15.814  14.647   5.641  0.1519 -0.1289  0.1227
 1022XCA    COO 9206  15.072   4.961   8.914  0.1892 -0.1907  0.0957
 1022XCA     C1 9207  14.653   4.941   8.804 -0.0460  0.0088 -0.2064
 1022XCA     C2 9208  14.256   4.916   8.688 -0.0816 -0.1596 -0.1579
 1022XCA     C3 9209  13.963   4.663   8.399 -0.1757 -0.0750  0.0639
 1022XCA     C4 9210  13.752   4.660   8.016 -0.3422 -0.0362 -0.0754
 1022XCA     C5 9211  13.418   4.436   7.988 -0.1525  0.0574  0.0446
 1022XCA     C6 9212  13.097   4.250   8.168 -0.0526  0.0315  0.4090
 1023CHOL   ROH 9213  13.166  10.539   5.408 -0.0429  0.1432 -0.1248
 1023CHOL    R1 9214  13.134  10.747   5.597 -0.1318  0.1360 -0.1318
 1023CHOL    R2 9215  12.887  10.826   5.691 -0.1511 -0.1278  0.0454
 1023CHOL    R3 9216  13.000  10.781   5.934  0.0872  0.0343 -0.0321
 1023CHOL    R4 9217  12.763  10.944   5.992  0.0113 -0.1183  0.1094
 1023CHOL    R5 9218  12.968  10.986   6.053  0.0367  0.0530 -0.0746
 1023CHOL    C1 9219  12.798  10.970   6.395  0.3297  0.0394  0.0740
 1023CHOL    C2 9220  12.893  11.078   6.698 -0.0860  0.0663  0.0529
 1024XCA    COO 9221  15.585  12.969   4.101  0.3137 -0.0453  0.2351
 1024XCA     C1 9222  15.346  12.919   4.465 -0.5473 -0.1338  0.1497
 1024XCA     C2 9223  15.218  12.739   4.828 -0.4924 -0.2682 -0.1050
 1024XCA     C3 9224  15.235  12.601   5.175  0.0829  0.1465 -0.2218
 1024XCA     C4 9225  15.169  12.532   5.650 -0.1072  0.1290 -0.2394
 1024XCA     C5 9226  14.861  12.571   6.010 -0.1074 -0.4921  0.1726
 1024XCA     C6 9227  14.676  12.925   6.015  0.2650 -0.1169  0.2046
 1025CHOL   ROH 9228   0.548  12.355   4.973 -0.0823 -0.2803 -0.1141
 1025CHOL    R1 9229   0.464  12.293   5.236 -0.0011 -0.1173 -0.0483
 1025CHOL    R2 9230   0.610  12.130   5.405 -0.0350 -0.1556 -0.0551
 1025CHOL    R3 9231   0.592  12.343   5.574  0.1966 -0.0744 -0.1283
 1025CHOL    R4 9232   0.595  12.108   5.750 -0.1442 -0.0256 -0.0508
 1025CHOL    R5 9233   0.447  12.267   5.748  0.0573  0.1668 -0.1367
 1025CHOL    C1 9234   0.569  12.295   6.109  0.0096  0.1262 -0.1172
 1025CHOL    C2 9235   0.220  12.182   6.238  0.0048  0.3248  0.0478
 1026CHOL   ROH 9236   8.488  14.262   4.713  0.1204  0.0096  0.0657
 1026CHOL    R1 9237   8.425  14.278   4.989  0.0499  0.0791  0.0463
 1026CHOL    R2 9238   8.609  14.354   5.180  0.0649 -0.0832  0.1019
 1026CHOL    R3 9239   8.419  14.537   5.244  0.2125  0.0971  0.0320
 1026CHOL    R4 9240   8.545  14.468   5.500 -0.1072 -0.2070  0.1124
 1026CHOL    R5 9241   8.332  14.461   5.454 -0.0750  0.0657 -0.0949
 1026CHOL    C1 9242   8.330  14.706   5.746 -0.0688 -0.1100  0.0531
 1026CHOL    C2 9243   8.068  14.710   6.019  0.1238  0.1729 -0.1977
 1027PNCE   AM1 9244  11.579   7.440   4.959  0.0684  0.1338 -0.1263
 1027PNCE   AM2 9245  11.844   7.497   5.050 -0.3351 -0.0848 -0.0338
 1027PNCE   T1A 9246  11.245   7.790   5.168 -0.0435  0.1477 -0.1339
 1027PNCE   C2A 9247  11.015   8.179   5.266  0.4078 -0.0001  0.1983
 1027PNCE   C3A 9248  10.924   8.614   5.214 -0.1401  0.2525  0.2085
 1027PNCE   C1B 9249  11.595   7.451   5.456  0.1836  0.2350  0.0165
 1027PNCE   C2B 9250  11.366   7.529   5.820  0.1832  0.1145  0.1747
 1027PNCE   C3B 9251  11.106   7.516   6.072 -0.1230 -0.1651 -0.0084
 1027PNCE   D4B 9252  10.666   7.683   6.073 -0.2006  0.1860 -0.1971
 1027PNCE   C5B 9253  10.503   8.070   6.198 -0.1588 -0.0877 -0.0036
 1027PNCE   C6B 9254  10.020   8.254   6.312 -0.0538 -0.0834  0.0399
 1028CHOL   ROH 9255   3.382   8.597   6.260 -0.0550  0.0009 -0.0310
 1028CHOL    R1 9256   3.415   8.589   6.541 -0.0175  0.0229 -0.0350
 1028CHOL    R2 9257   3.212   8.652   6.716 -0.0040  0.0004 -0.0137
 1028CHOL    R3 9258   3.268   8.407   6.819  0.0485  0.0160 -0.0039
 1028CHOL    R4 9259   3.047   8.508   6.984  0.1106  0.0318  0.0751
 1028CHOL    R5 9260   3.239   8.434   7.056  0.1452  0.0484  0.0059
 1028CHOL    C1 9261   3.003   8.194   7.237  0.2266  0.0647  0.1359
 1028CHOL    C2 9262   3.002   8.194   7.527  0.1017  0.2310 -0.0971
 1029PNCE   AM1 9263   3.898   9.747   5.551 -0.0219  0.3067  0.1653
 1029PNCE   AM2 9264   3.785   9.493   5.812 -0.1014  0.0470  0.0036
 1029PNCE   T1A 9265   3.554  10.008   5.743  0.0837 -0.0205  0.2406
 1029PNCE   C2A 9266   3.368  10.306   6.074 -0.4757  0.2823 -0.0044
 1029PNCE   C3A 9267   3.334  10.703   6.062 -0.1838  0.1710  0.2113
 1029PNCE   C1B 9268   3.838   9.704   6.177  0.1780  0.0999 -0.0279
 1029PNCE   C2B 9269   3.517   9.925   6.385  0.1425  0.0722 -0.1332
 1029PNCE   C3B 9270   3.370   9.763   6.854  0.0330  0.0803 -0.0462
 1029PNCE   D4B 9271   3.101   9.939   7.207 -0.0433 -0.0858 -0.2377
 1029PNCE   C5B 9272   2.723   9.769   7.407 -0.0776  0.0247  0.0910
 1029PNCE   C6B 9273   2.343   9.934   7.408  0.1790 -0.2471 -0.0289
 1030XCA    COO 9274   0.596   9.856   4.818 -0.1998 -0.1698 -0.0306
 1030XCA     C1 9275   0.953   9.978   5.077  0.2504 -0.3218  0.0285
 1030XCA     C2 9276   1.125  10.186   5.404  0.4167  0.1066 -0.1119
 1030XCA     C3 9277   0.970  10.520   5.674  0.1468 -0.0512  0.1265
 1030XCA     C4 9278   0.797  11.030   5.675 -0.2560 -0.2042 -0.2369
 1030XCA     C5 9279   0.968  11.299   5.921 -0.1472  0.2595 -0.0824
 1030XCA     C6 9280   1.279  11.578   6.117 -0.0291 -0.3640 -0.0288
 1031CHOL   ROH 9281   2.828   7.941   5.702  0.1254  0.2159  0.2008
 1031CHOL    R1 9282   2.685   7.809   5.907  0.1543 -0.1282  0.0074
 1031CHOL    R2 9283   2.754   7.558   5.999  0.6485  0.0347  0.1071
 1031CHOL    R3 9284   2.756   7.683   6.241  0.0079  0.0661  0.1148
 1031CHOL    R4 9285   2.703   7.401   6.303  0.7124 -0.1049  0.0464
 1031CHOL    R5 9286   2.584   7.573   6.366  0.1447 -0.4165 -0.0953
 1031CHOL    C1 9287   2.675   7.426   6.706  0.1482 -0.1569  0.0183
 1031CHOL    C2 9288   2.510   7.496   7.006 -0.0043 -0.1437 -0.2043
 1032PNCE   AM1 9289  10.849  10.075   4.558 -0.0048 -0.0054 -0.0057
 1032PNCE   AM2 9290  10.785  10.191   4.262 -0.0596 -0.1479 -0.0603
 1032PNCE   T1A 9291  10.833  10.146   4.942 -0.3864  0.1602 -0.0586
 1032PNCE   C2A 9292  10.790  10.215   5.363  0.0969 -0.1023  0.0872
 1032PNCE   C3A 9293  10.523  10.473   5.705 -0.0684  0.2763  0.2253
 1032PNCE   C1B 9294  10.712  10.561   4.557  0.0270 -0.1567 -0.1974
 1032PNCE   C2B 9295  10.720  10.637   5.008 -0.2037 -0.2142 -0.1338
 1032PNCE   C3B 9296  10.609  10.862   5.406  0.0976 -0.2108  0.1360
 1032PNCE   D4B 9297  10.279  10.981   5.703 -0.1033  0.1768 -0.3076
 1032PNCE   C5B 9298  10.243  10.699   6.014 -0.5057 -0.1841  0.0431
 1032PNCE   C6B 9299  10.137  10.347   6.230  0.0111 -0.0415  0.1699
 1033PNCE   AM1 9300  13.424  11.648   4.313 -0.0718 -0.0906  0.1437
 1033PNCE   AM2 9301  13.262  11.335   4.122 -0.0825  0.1381 -0.0149
 1033PNCE   T1A 9302  13.509  11.869   4.667  0.2107  0.1679 -0.0928
 1033PNCE   C2A 9303  13.756  11.787   5.007  0.1139 -0.4958 -0.1326
 1033PNCE   C3A 9304  13.970  11.782   5.416  0.4029  0.1040  0.2007
 1033PNCE   C1B 9305  13.145  11.212   4.458 -0.2134 -0.2115  0.0761
 1033PNCE   C2B 9306  13.165  11.206   4.973 -0.1282 -0.2763 -0.1502
 1033PNCE   C3B 9307  12.964  11.291   5.338 -0.1586  0.1225 -0.2534
 1033PNCE   D4B 9308  13.010  11.475   5.726 -0.1181 -0.1335  0.2342
 1033PNCE   C5B 9309  12.632  11.498   5.851 -0.3713 -0.1670 -0.3578
 1033PNCE   C6B 9310  12.324  11.178   5.946  0.2651  0.2656  0.1566
 1034PNCE   AM1 9311  11.125   2.337   5.493 -0.0789 -0.0407  0.3133
 1034PNCE   AM2 9312  11.191   2.648   5.290 -0.1255 -0.0033  0.0512
 1034PNCE   T1A 9313  11.331   2.221   5.953 -0.0046 -0.1104 -0.2308
 1034PNCE   C2A 9314  11.547   2.178   6.306  0.2492  0.1904 -0.2081
 1034PNCE   C3A 9315  11.971   2.425   6.439  0.0119 -0.1477 -0.1695
 1034PNCE   C1B 9316  10.807   2.765   5.657  0.1100  0.0498  0.0794
 1034PNCE   C2B 9317  10.439   2.841   5.917  0.1176 -0.1560 -0.0199
 1034PNCE   C3B 9318  10.019   2.704   6.120  0.3486  0.0916  0.0090
 1034PNCE   D4B 9319   9.582   2.776   6.238  0.1624 -0.0670 -0.0392
 1034PNCE   C5B 9320   9.628   3.194   6.112 -0.2599 -0.0158  0.0873
 1034PNCE   C6B 9321   9.768   3.440   5.650 -0.0960  0.1273  0.1397
 1035CHOL   ROH 9322  13.246  15.099   8.504 -0.0189  0.2553  0.1824
 1035CHOL    R1 9323  13.187  15.284   8.298  0.0742  0.1788  0.0854
 1035CHOL    R2 9324  13.373  15.361   8.108  0.0962 -0.0623  0.0034
 1035CHOL    R3 9325  13.181  15.281   7.934  0.0063 -0.0302  0.0876
 1035CHOL    R4 9326  13.365  15.441   7.772 -0.0950  0.0216  0.0270
 1035CHOL    R5 9327  13.150  15.469   7.789 -0.0868  0.0030  0.1515
 1035CHOL    C1 9328  13.180  15.413   7.413 -0.2908  0.1006  0.1197
 1035CHOL    C2 9329  13.196  15.711   7.196 -0.3132  0.3588  0.0069
 1036PNCE   AM1 9330  15.000   8.953   5.386 -0.2343 -0.0543  0.0659
 1036PNCE   AM2 9331  14.749   9.001   5.416 -0.1683 -0.4490  0.1032
 1036PNCE   T1A 9332  15.202   9.152   5.827  0.0704 -0.2496 -0.2297
 1036PNCE   C2A 9333  15.394   9.394   6.114  0.1594 -0.0754 -0.0431
 1036PNCE   C3A 9334  15.295   9.512   6.529 -0.0017  0.0591 -0.1804
 1036PNCE   C1B 9335  14.735   9.269   5.759 -0.1598  0.0207  0.0149
 1036PNCE   C2B 9336  14.919   9.558   6.145  0.2019  0.0646  0.0520
 1036PNCE   C3B 9337  15.058   9.926   6.423  0.1353  0.4934  0.1181
 1036PNCE   D4B 9338  15.533   9.955   6.654  0.0622 -0.0460 -0.1229
 1036PNCE   C5B 9339  15.729   9.623   6.842  0.0431  0.0677 -0.0807
 1036PNCE   C6B 9340  15.918   9.346   6.766 -0.1518 -0.0295  0.0903
 1037XCA    COO 9341   3.803   8.529   5.451  0.0096 -0.1962 -0.1225
 1037XCA     C1 9342   3.825   8.586   5.907  0.0092  0.4844 -0.0653
 1037XCA     C2 9343   3.822   8.732   6.361  0.0066 -0.0896 -0.2605
 1037XCA     C3 9344   3.734   8.761   6.803 -0.0702 -0.0091 -0.2192
 1037XCA     C4 9345   3.794   9.081   7.014  0.0217 -0.0598 -0.0269
 1037XCA     C5 9346   4.175   9.337   7.060  0.1625 -0.1644  0.1311
 1037XCA     C6 9347   4.383   9.625   7.304  0.0148  0.0983  0.2346
 1038PNCE   AM1 9348   5.700   3.364   4.714  0.1381  0.0516  0.2060
 1038PNCE   AM2 9349   5.327   3.518   4.787  0.3243 -0.0493  0.1231
 1038PNCE   T1A 9350   5.310   3.074   4.966  0.1236  0.1176 -0.0049
 1038PNCE   C2A 9351   5.219   2.646   5.183 -0.1586  0.0127 -0.2398
 1038PNCE   C3A 9352   5.113   2.566   5.606 -0.0544 -0.0783 -0.0741
 1038PNCE   C1B 9353   5.411   3.613   5.210  0.0929  0.1436 -0.4624
 1038PNCE   C2B 9354   5.424   3.575   5.675 -0.0778  0.1259 -0.2805
 1038PNCE   C3B 9355   5.282   3.314   6.066  0.2559 -0.0808 -0.2461
 1038PNCE   D4B 9356   5.252   3.026   6.401 -0.2242  0.3565  0.1848
 1038PNCE   C5B 9357   4.967   2.702   6.442  0.1982 -0.2651 -0.2346
 1038PNCE   C6B 9358   4.764   2.293   6.545  0.1080  0.0590 -0.2268
 1039CHOL   ROH 9359  10.742   2.081   5.175 -0.1916  0.0481 -0.2823
 1039CHOL    R1 9360  10.610   2.187   5.402 -0.0613 -0.0777 -0.1442
 1039CHOL    R2 9361  10.531   2.452   5.417 -0.0259 -0.0770  0.0626
 1039CHOL    R3 9362  10.288   2.342   5.471 -0.0095 -0.0844  0.1223
 1039CHOL    R4 9363  10.252   2.629   5.519 -0.0750 -0.0520 -0.1117
 1039CHOL    R5 9364  10.206   2.467   5.658 -0.0573  0.0492  0.0131
 1039CHOL    C1 9365   9.862   2.630   5.629 -0.0882 -0.0444 -0.1572
 1039CHOL    C2 9366   9.571   2.986   5.708 -0.1296  0.1545  0.1613
 1040CHOL   ROH 9367   2.606   8.449   6.362 -0.1528 -0.2741 -0.0389
 1040CHOL    R1 9368   2.647   8.427   6.641 -0.0133 -0.2096 -0.0523
 1040CHOL    R2 9369   2.498   8.572   6.824  0.2372  0.0154 -0.0151
 1040CHOL    R3 9370   2.449   8.326   6.929  0.0441  0.1015  0.0992
 1040CHOL    R4 9371   2.497   8.497   7.162  0.1135  0.1769  0.0207
 1040CHOL    R5 9372   2.598   8.310   7.116 -0.0094  0.0862  0.1365
 1040CHOL    C1 9373   2.450   8.224   7.457 -0.1398  0.3517  0.1489
 1040CHOL    C2 9374   2.470   7.919   7.782  0.3391  0.0917 -0.0130
 1041CHOL   ROH 9375   5.284  13.228   6.050  0.1291 -0.1210 -0.1489
 1041CHOL    R1 9376   5.014  13.198   6.129  0.1448  0.0735 -0.0182
 1041CHOL    R2 9377   4.892  12.951   6.151 -0.0781  0.1719 -0.1587
 1041CHOL    R3 9378   4.835  13.038   6.402  0.1486  0.0151 -0.0484
 1041CHOL    R4 9379   4.653  12.813   6.359 -0.0354  0.1686 -0.1101
 1041CHOL    R5 9380   4.598  13.015   6.421  0.1410  0.1621  0.0873
 1041CHOL    C1 9381   4.460  12.815   6.716  0.2023  0.0195  0.0218
 1041CHOL    C2 9382   4.149  13.126   6.783  0.0526 -0.1758 -0.1095
 1042PNCE   AM1 9383   4.310   2.473   4.772 -0.0433 -0.0304  0.2172
 1042PNCE   AM2 9384   4.074   2.240   4.841  0.1119 -0.2066  0.0414
 1042PNCE   T1A 9385   4.280   2.539   5.249 -0.2820  0.1316 -0.0848
 1042PNCE   C2A 9386   4.485   2.396   5.647 -0.4833 -0.4421  0.0520
 1042PNCE   C3A 9387   4.289   2.369   5.991  0.0161  0.1944  0.0741
 1042PNCE   C1B 9388   3.945   2.045   5.171 -0.1531  0.1077 -0.0401
 1042PNCE   C2B 9389   3.982   2.146   5.649 -0.0297 -0.1009 -0.1404
 1042PNCE   C3B 9390   3.969   1.971   6.127 -0.0198  0.0520 -0.1577
 1042PNCE   D4B 9391   4.170   1.878   6.536  0.0252  0.0890  0.1804
 1042PNCE   C5B 9392   3.972   1.702   6.924 -0.0374  0.0716 -0.1608
 1042PNCE   C6B 9393   3.508   1.620   7.008 -0.0883 -0.1143  0.5003
 1043PNCE   AM1 9394   4.582  11.259   5.611  0.1739  0.1067 -0.0787
 1043PNCE   AM2 9395   4.395  11.161   5.406  0.6498  0.3211 -0.0605
 1043PNCE   T1A 9396   4.582  10.944   5.866  0.1074 -0.1903  0.0581
 1043PNCE   C2A 9397   4.672  10.941   6.327 -0.1126  0.0657  0.0365
 1043PNCE   C3A 9398   4.730  11.180   6.687  0.2041 -0.0658  0.0548
 1043PNCE   C1B 9399   4.148  11.183   5.799 -0.0499 -0.1395 -0.1589
 1043PNCE   C2B 9400   3.940  11.398   6.203 -0.0682  0.0160  0.1689
 1043PNCE   C3B 9401   3.514  11.334   6.367  0.0853  0.1120 -0.2490
 1043PNCE   D4B 9402   3.418  10.986   6.643 -0.3884  0.2373  0.1217
 1043PNCE   C5B 9403   2.995  10.669   6.457 -0.2091  0.0259 -0.0080
 1043PNCE   C6B 9404   2.553  10.804   6.552  0.0156 -0.0746 -0.1595
 1044PNCE   AM1 9405  15.339  11.187   4.641  0.2049  0.0124  0.1557
 1044PNCE   AM2 9406  15.178  10.981   4.716 -0.1681 -0.2963 -0.2645
 1044PNCE   T1A 9407  15.723  11.263   4.992 -0.1630 -0.1813 -0.0452
 1044PNCE   C2A 9408  15.864  11.123   5.473  0.1545 -0.0471  0.2475
 1044PNCE   C3A 9409  16.103  10.924   5.746 -0.2980 -0.3143 -0.0935
 1044PNCE   C1B 9410  15.069  10.828   5.136  0.1914 -0.5183  0.1431
 1044PNCE   C2B 9411  14.851  10.583   5.498  0.1697 -0.0320 -0.3855
 1044PNCE   C3B 9412  14.708  10.407   5.791  0.0182 -0.1272  0.1696
 1044PNCE   D4B 9413  14.515  10.492   6.206  0.2086 -0.0312 -0.0556
 1044PNCE   C5B 9414  14.191  10.670   6.217 -0.0269 -0.0810  0.1243
 1044PNCE   C6B 9415  13.784  10.916   6.251  0.0367  0.1407  0.2891
 1045CHOL   ROH 9416   6.310  11.619   7.390 -0.3534 -0.0045 -0.0039
 1045CHOL    R1 9417   6.420  11.632   7.130 -0.2887 -0.0742  0.0184
 1045CHOL    R2 9418   6.635  11.477   7.051 -0.2496 -0.0824  0.1173
 1045CHOL    R3 9419   6.466  11.404   6.850 -0.1991 -0.1583  0.1038
 1045CHOL    R4 9420   6.732  11.329   6.754 -0.1602  0.0519  0.0796
 1045CHOL    R5 9421   6.587  11.453   6.650 -0.2451 -0.0323  0.1127
 1045CHOL    C1 9422   6.631  11.174   6.393 -0.0609  0.0590  0.0449
 1045CHOL    C2 9423   6.570  10.877   6.093  0.0923 -0.1566  0.0294
 1046CHOL   ROH 9424   5.766  15.192   8.611 -0.0454  0.1178 -0.0884
 1046CHOL    R1 9425   5.930  15.242   8.386 -0.1275  0.1145 -0.1501
 1046CHOL    R2 9426   6.196  15.167   8.376 -0.0810  0.2681 -0.1779
 1046CHOL    R3 9427   6.118  15.043   8.146 -0.0650  0.1167 -0.1017
 1046CHOL    R4 9428   6.410  15.012   8.153 -0.0592  0.2144 -0.1190
 1046CHOL    R5 9429   6.292  15.095   7.989 -0.1023  0.0847 -0.1497
 1046CHOL    C1 9430   6.462  14.805   7.808 -0.0315  0.0409 -0.0131
 1046CHOL    C2 9431   6.841  14.752   7.746  0.0720 -0.0266  0.2327
 1047PNCE   AM1 9432  14.424   8.029   5.538  0.1739  0.2934 -0.1957
 1047PNCE   AM2 9433  14.666   8.184   5.550 -0.2857 -0.0405 -0.1871
 1047PNCE   T1A 9434  14.354   7.901   5.942  0.0026  0.1073 -0.1382
 1047PNCE   C2A 9435  14.366   7.796   6.340 -0.0913  0.0990 -0.1527
 1047PNCE   C3A 9436  14.294   7.764   6.847 -0.1909  0.1709  0.1490
 1047PNCE   C1B 9437  14.851   8.174   5.931 -0.0045  0.1377  0.1255
 1047PNCE   C2B 9438  14.677   8.335   6.312  0.1805  0.0994  0.1066
 1047PNCE   C3B 9439  14.793   8.229   6.818  0.1122 -0.1052  0.0849
 1047PNCE   D4B 9440  14.841   8.229   7.267  0.0402 -0.0311  0.1911
 1047PNCE   C5B 9441  15.049   7.823   7.403 -0.1248 -0.0954  0.0585
 1047PNCE   C6B 9442  15.462   7.813   7.763 -0.0478  0.2180  0.0312
 1048CHOL   ROH 9443   3.495   0.992   6.230 -0.0646 -0.0307  0.0006
 1048CHOL    R1 9444   3.304   0.874   6.403 -0.0859  0.0378  0.0241
 1048CHOL    R2 9445   3.357   0.648   6.552 -0.1919 -0.0614 -0.0842
 1048CHOL    R3 9446   3.277   0.805   6.759 -0.0034 -0.0827  0.0073
 1048CHOL    R4 9447   3.155   0.544   6.812 -0.0696 -0.0482  0.0171
 1048CHOL    R5 9448   3.052   0.736   6.802 -0.0031 -0.0067  0.1307
 1048CHOL    C1 9449   2.961   0.631   7.158  0.1786 -0.0605  0.1621
 1048CHOL    C2 9450   3.128   0.544   7.539  0.1519  0.1046 -0.3499
 1049CHOL   ROH 9451   8.393   7.467   9.047  0.1405  0.0370 -0.0769
 1049CHOL    R1 9452   8.565   7.399   8.833  0.1312 -0.1213 -0.0346
 1049CHOL    R2 9453   8.557   7.153   8.709 -0.0430 -0.1251 -0.0135
 1049CHOL    R3 9454   8.528   7.303   8.484  0.1280 -0.1210 -0.0349
 1049CHOL    R4 9455   8.581   7.031   8.386 -0.0901 -0.1816  0.0038
 1049CHOL    R5 9456   8.689   7.212   8.331  0.0795 -0.2789  0.0036
 1049CHOL    C1 9457   8.567   7.101   7.987  0.0429 -0.2107 -0.0063
 1049CHOL    C2 9458   8.619   7.070   7.642 -0.1844  0.2473  0.1250
 1050CHOL   ROH 9459   9.165   3.351   4.823 -0.1320 -0.2126 -0.0477
 1050CHOL    R1 9460   9.039   3.417   5.068 -0.1800 -0.0847 -0.1060
 1050CHOL    R2 9461   8.767   3.395   5.105 -0.1698 -0.2123 -0.1012
 1050CHOL    R3 9462   8.841   3.243   5.318 -0.0890  0.0027  0.0281
 1050CHOL    R4 9463   8.564   3.321   5.376 -0.1757 -0.1999 -0.1021
 1050CHOL    R5 9464   8.737   3.349   5.506 -0.2323  0.0459 -0.0737
 1050CHOL    C1 9465   8.516   3.136   5.733 -0.1033  0.0092  0.0188
 1050CHOL    C2 9466   8.521   2.938   6.071  0.2849  0.3193 -0.2713
 1051CHOL   ROH 9467   2.771   7.078   7.569 -0.0614  0.0093  0.0108
 1051CHOL    R1 9468   3.045   7.014   7.533 -0.0501  0.0739 -0.0120
 1051CHOL    R2 9469   3.136   6.863   7.320 -0.0574 -0.0420  0.0723
 1051CHOL    R3 9470   3.300   7.076   7.282 -0.1296 -0.0167 -0.1180
 1051CHOL    R4 9471   3.435   6.854   7.148  0.0417 -0.1473  0.2445
 1051CHOL    R5 9472   3.521   6.985   7.298 -0.0959  0.0934  0.1252
 1051CHOL    C1 9473   3.764   7.048   7.011  0.0315 -0.1848  0.1662
 1051CHOL    C2 9474   4.035   7.375   6.904  0.0864  0.3359  0.1220
 1052CHOL   ROH 9475   1.389   3.531   5.593 -0.1124 -0.2675  0.2737
 1052CHOL    R1 9476   1.585   3.704   5.700 -0.1010 -0.1529  0.0753
 1052CHOL    R2 9477   1.637   3.721   5.971 -0.0935  0.1518  0.0640
 1052CHOL    R3 9478   1.893   3.670   5.893 -0.1013  0.0460  0.1107
 1052CHOL    R4 9479   1.913   3.741   6.177 -0.0969  0.2148  0.0609
 1052CHOL    R5 9480   2.024   3.832   6.012 -0.0693  0.0854  0.0147
 1052CHOL    C1 9481   2.314   3.705   6.224 -0.1062  0.1522  0.1030
 1052CHOL    C2 9482   2.259   3.988   6.394  0.0672 -0.3798  0.1948
 1053CHOL   ROH 9483   8.281   1.770   4.556 -0.2117  0.1092 -0.0956
 1053CHOL    R1 9484   8.396   1.718   4.809 -0.1756 -0.0561 -0.1446
 1053CHOL    R2 9485   8.405   1.908   5.010  0.0458 -0.1170 -0.0957
 1053CHOL    R3 9486   8.283   1.714   5.155 -0.0724 -0.0543 -0.1103
 1053CHOL    R4 9487   8.238   1.962   5.307  0.0547 -0.0331 -0.1054
 1053CHOL    R5 9488   8.325   1.776   5.383 -0.0532 -0.0845 -0.1052
 1053CHOL    C1 9489   8.026   1.811   5.618 -0.0512  0.0747 -0.1248
 1053CHOL    C2 9490   7.896   1.816   5.933 -0.4277  0.2060 -0.0392
 1054PNCE   AM1 9491  15.523   6.676   5.149  0.0743  0.0031 -0.1436
 1054PNCE   AM2 9492  15.931   6.780   5.034  0.0888  0.0401  0.2436
 1054PNCE   T1A 9493  15.299   6.732   5.553  0.3942  0.0360  0.0316
 1054PNCE   C2A 9494  15.251   6.761   6.012 -0.2684 -0.1207  0.0412
 1054PNCE   C3A 9495  15.315   6.699   6.428  0.0291  0.3485  0.1404
 1054PNCE   C1B 9496  15.840   6.831   5.455 -0.0007 -0.1944  0.0059
 1054PNCE   C2B 9497  15.710   6.852   5.905 -0.1569  0.2444 -0.0763
 1054PNCE   C3B 9498  15.818   6.829   6.271 -0.2405  0.0427  0.1431
 1054PNCE   D4B 9499  15.920   6.697   6.508 -0.0948  0.2592  0.1963
 1054PNCE   C5B 9500  15.798   6.768   6.851 -0.3966 -0.0940  0.0415
 1054PNCE   C6B 9501  15.995   6.814   7.291 -0.2304 -0.2416 -0.0878
 1055CHOL   ROH 9502   0.955   4.755   5.521 -0.1272 -0.1884 -0.1763
 1055CHOL    R1 9503   0.843   4.611   5.738 -0.0328 -0.1739 -0.1171
 1055CHOL    R2 9504   0.900   4.672   6.002 -0.0274 -0.0651 -0.1409
 1055CHOL    R3 9505   0.630   4.686   6.023 -0.0316 -0.1843 -0.1142
 1055CHOL    R4 9506   0.725   4.667   6.299  0.0118  0.0166 -0.1163
 1055CHOL    R5 9507   0.576   4.539   6.204  0.0618 -0.1082 -0.0254
 1055CHOL    C1 9508   0.368   4.677   6.493  0.0307 -0.0477 -0.0770
 1055CHOL    C2 9509   0.527   4.685   6.916 -0.2440 -0.2287  0.2495
 1056PNCE   AM1 9510   2.864   2.153   4.779  0.0157  0.2816  0.0108
 1056PNCE   AM2 9511   3.098   1.937   4.852  0.0487 -0.0966 -0.0435
 1056PNCE   T1A 9512   3.055   2.400   5.030  0.1595  0.0130  0.0305
 1056PNCE   C2A 9513   2.994   2.903   5.028 -0.2026  0.0889 -0.0685
 1056PNCE   C3A 9514   2.895   3.343   4.977 -0.1442 -0.0115  0.1324
 1056PNCE   C1B 9515   3.475   1.963   5.214  0.1914  0.1559  0.2989
 1056PNCE   C2B 9516   3.672   1.752   5.497 -0.0527 -0.0698 -0.0526
 1056PNCE   C3B 9517   4.051   1.593   5.865  0.0760 -0.1145  0.0119
 1056PNCE   D4B 9518   4.373   1.475   6.183  0.0690  0.1740 -0.1124
 1056PNCE   C5B 9519   4.253   1.320   6.551 -0.1718  0.1394 -0.0817
 1056PNCE   C6B 9520   4.477   1.310   6.969  0.2274 -0.1128  0.1510
 1057CHOL   ROH 9521   1.077  12.123   4.688  0.1389  0.1099  0.0505
 1057CHOL    R1 9522   0.903  12.272   4.854  0.0175  0.0252  0.0004
 1057CHOL    R2 9523   0.949  12.308   5.124 -0.1677 -0.0940  0.0507
 1057CHOL    R3 9524   0.925  12.572   5.060 -0.1373 -0.0659  0.1523
 1057CHOL    R4 9525   0.894  12.563   5.352 -0.0018 -0.1572  0.1636
 1057CHOL    R5 9526   0.756  12.654   5.209 -0.0480 -0.0766  0.2596
 1057CHOL    C1 9527   0.839  12.958   5.424  0.1232 -0.1678  0.3247
 1057CHOL    C2 9528   0.947  13.140   5.784 -0.0211 -0.0373  0.0600
 1058PNCE   AM1 9529   6.808  14.785   5.137  0.0470 -0.1833  0.0120
 1058PNCE   AM2 9530   6.635  14.681   5.476  0.1046 -0.3500  0.0608
 1058PNCE   T1A 9531   7.087  14.816   5.519 -0.4397  0.0603 -0.0386
 1058PNCE   C2A 9532   7.288  14.945   5.871 -0.0074 -0.2831 -0.3873
 1058PNCE   C3A 9533   7.673  15.063   5.959 -0.2297 -0.0812 -0.0920
 1058PNCE   C1B 9534   6.517  14.719   5.906  0.0661  0.0103  0.0206
 1058PNCE   C2B 9535   6.618  14.548   6.323  0.1122 -0.2279  0.2380
 1058PNCE   C3B 9536   6.650  14.353   6.778 -0.2290  0.0451 -0.0008
 1058PNCE   D4B 9537   6.716  14.252   7.151 -0.0891  0.0521 -0.1051
 1058PNCE   C5B 9538   7.072  14.432   7.398 -0.0165  0.1525  0.2192
 1058PNCE   C6B 9539   7.432  14.201   7.520  0.1244 -0.0432  0.3343
 1059CHOL   ROH 9540  15.088  11.505   4.204 -0.0848  0.0658  0.0824
 1059CHOL    R1 9541  14.884  11.491   4.400 -0.1279  0.1527  0.0438
 1059CHOL    R2 9542  14.935  11.520   4.670 -0.1616  0.0993  0.0541
 1059CHOL    R3 9543  14.744  11.713   4.652 -0.0592  0.2007  0.0407
 1059CHOL    R4 9544  14.832  11.721   4.931 -0.0357  0.1879  0.0365
 1059CHOL    R5 9545  14.627  11.701   4.861 -0.0534  0.2891  0.0511
 1059CHOL    C1 9546  14.594  12.020   5.067  0.1337  0.3347  0.0136
 1059CHOL    C2 9547  14.408  11.914   5.407  0.2169  0.1998  0.0538
 1060PNCE   AM1 9548   8.994  10.576   5.000  0.2143 -0.0701  0.0796
 1060PNCE   AM2 9549   9.192  10.377   5.086  0.2208  0.0187 -0.0065
 1060PNCE   T1A 9550   9.263  10.873   5.219 -0.1876 -0.0123  0.4020
 1060PNCE   C2A 9551   9.667  11.019   5.374  0.0583 -0.0265 -0.0922
 1060PNCE   C3A 9552  10.082  10.839   5.306  0.1359  0.0830 -0.1737
 1060PNCE   C1B 9553   9.433  10.398   5.388  0.1350  0.0345 -0.1133
 1060PNCE   C2B 9554   9.333  10.724   5.709  0.1189 -0.0692  0.0225
 1060PNCE   C3B 9555   8.972  10.593   5.903 -0.0321  0.2289 -0.1155
 1060PNCE   D4B 9556   8.615  10.443   5.886  0.1405  0.2529 -0.2958
 1060PNCE   C5B 9557   8.248  10.571   6.080  0.2408  0.0533 -0.0835
 1060PNCE   C6B 9558   8.116  10.511   6.450  0.0248 -0.3344 -0.0443
 1061PNCE   AM1 9559  13.836   2.556   5.300  0.1866  0.2003  0.1186
 1061PNCE   AM2 9560  13.753   2.308   5.095  0.2653 -0.1710  0.1621
 1061PNCE   T1A 9561  13.891   2.694   5.689  0.1718 -0.5915  0.2000
 1061PNCE   C2A 9562  13.674   2.594   6.020 -0.2197 -0.2205 -0.0118
 1061PNCE   C3A 9563  13.372   2.561   6.301  0.0275  0.0025 -0.1137
 1061PNCE   C1B 9564  13.518   2.045   5.341  0.0452  0.2550  0.1554
 1061PNCE   C2B 9565  13.720   2.059   5.746  0.1395  0.0244 -0.1140
 1061PNCE   C3B 9566  13.463   2.098   6.111  0.1058  0.0224  0.4687
 1061PNCE   D4B 9567  13.295   2.055   6.517  0.2281 -0.0819 -0.1286
 1061PNCE   C5B 9568  13.067   2.367   6.784 -0.0628 -0.1626 -0.0571
 1061PNCE   C6B 9569  12.954   2.738   6.606 -0.0701 -0.0499  0.1469
 1062CHOL   ROH 9570   1.216   8.323   9.187  0.1312 -0.0560 -0.0906
 1062CHOL    R1 9571   1.280   8.287   8.914  0.0470 -0.0436 -0.1124
 1062CHOL    R2 9572   1.088   8.278   8.715 -0.0018  0.1602 -0.0761
 1062CHOL    R3 9573   1.239   8.476   8.605  0.1375  0.0651 -0.0590
 1062CHOL    R4 9574   1.089   8.363   8.380  0.0781  0.1705 -0.0736
 1062CHOL    R5 9575   1.305   8.389   8.392  0.0956  0.0275 -0.0571
 1062CHOL    C1 9576   1.231   8.598   8.082  0.2554  0.0873 -0.0559
 1062CHOL    C2 9577   0.968   8.527   7.733  0.1218 -0.1584 -0.1997
 1063PNCE   AM1 9578   9.074   0.851   4.033 -0.0696 -0.1012 -0.2884
 1063PNCE   AM2 9579   8.972   1.228   4.202 -0.2089  0.1769  0.0735
 1063PNCE   T1A 9580   8.769   0.782   4.222  0.5602 -0.0834  0.1429
 1063PNCE   C2A 9581   8.346   0.615   4.373 -0.1243 -0.1695  0.2219
 1063PNCE   C3A 9582   7.979   0.381   4.537 -0.0425  0.1152  0.0188
 1063PNCE   C1B 9583   8.645   1.469   4.448 -0.1814 -0.1139  0.1197
 1063PNCE   C2B 9584   8.669   1.397   4.817 -0.0313 -0.0961  0.0993
 1063PNCE   C3B 9585   8.713   1.286   5.255 -0.0185  0.1608 -0.2073
 1063PNCE   D4B 9586   8.934   1.230   5.644 -0.3165 -0.3503 -0.1086
 1063PNCE   C5B 9587   8.770   0.937   5.877  0.0832  0.1161  0.1410
 1063PNCE   C6B 9588   8.772   0.476   5.775  0.2984 -0.1110 -0.1310
 1064CHOL   ROH 9589   4.749   6.783   7.275 -0.1039  0.0361  0.0554
 1064CHOL    R1 9590   4.894   7.021   7.230 -0.1475  0.0858  0.1728
 1064CHOL    R2 9591   5.134   7.075   7.356 -0.0762 -0.0046  0.0796
 1064CHOL    R3 9592   5.223   7.111   7.101 -0.2287  0.2170  0.0551
 1064CHOL    R4 9593   5.383   7.296   7.262  0.2149 -0.2749  0.2009
 1064CHOL    R5 9594   5.266   7.346   7.086  0.1456  0.1772  0.3641
 1064CHOL    C1 9595   5.612   7.458   6.969  0.2413 -0.2243  0.2485
 1064CHOL    C2 9596   5.945   7.675   7.108 -0.0701  0.2022 -0.0120
 1065PNCE   AM1 9597   2.551  15.719   4.315  0.0626 -0.2505  0.1871
 1065PNCE   AM2 9598   2.791  15.885   4.497  0.4956  0.2366 -0.0745
 1065PNCE   T1A 9599   2.206  15.554   4.499  0.0977 -0.1980 -0.2288
 1065PNCE   C2A 9600   1.751  15.417   4.687  0.0109 -0.0998 -0.1871
 1065PNCE   C3A 9601   1.366  15.328   4.992 -0.1997  0.0948  0.0445
 1065PNCE   C1B 9602   2.662  15.582   4.845 -0.3164 -0.1073 -0.0517
 1065PNCE   C2B 9603   2.489  15.515   5.211 -0.1978 -0.0720  0.0449
 1065PNCE   C3B 9604   2.184  15.508   5.495  0.0430  0.1301  0.0235
 1065PNCE   D4B 9605   1.868  15.218   5.652 -0.1244 -0.0328 -0.1218
 1065PNCE   C5B 9606   1.835  15.145   6.040 -0.0126  0.1231 -0.3001
 1065PNCE   C6B 9607   1.847  15.516   6.317  0.1941  0.0240 -0.0308
 1066XCA    COO 9608   7.465  15.800   8.686  0.1630  0.0031 -0.2053
 1066XCA     C1 9609   7.530  15.475   8.430 -0.0964  0.4158 -0.0871
 1066XCA     C2 9610   7.401  15.117   8.228  0.2072 -0.1393  0.1811
 1066XCA     C3 9611   7.264  15.106   7.702 -0.0520 -0.0489  0.4082
 1066XCA     C4 9612   7.064  14.970   7.314 -0.0963  0.2324  0.0211
 1066XCA     C5 9613   7.217  15.055   6.946 -0.2329  0.1190  0.0115
 1066XCA     C6 9614   7.508  14.912   6.730 -0.0293 -0.1956 -0.0299
 1067PNCE   AM1 9615   5.281   4.697   4.944 -0.1669  0.1965  0.0834
 1067PNCE   AM2 9616   5.073   4.956   4.852 -0.1934  0.2590 -0.2021
 1067PNCE   T1A 9617   5.033   4.492   5.198 -0.1452 -0.1279 -0.4124
 1067PNCE   C2A 9618   4.954   4.311   5.605  0.1843  0.3125  0.0707
 1067PNCE   C3A 9619   5.035   4.359   5.970 -0.1451  0.0957  0.0706
 1067PNCE   C1B 9620   5.223   5.045   5.328 -0.1624  0.2189  0.0937
 1067PNCE   C2B 9621   5.319   5.111   5.795  0.0166  0.0099 -0.1741
 1067PNCE   C3B 9622   5.428   5.133   6.125 -0.0293 -0.2075 -0.0045
 1067PNCE   D4B 9623   5.769   5.346   6.427  0.1188  0.1186 -0.0157
 1067PNCE   C5B 9624   6.170   5.579   6.283 -0.0499 -0.1159  0.3503
 1067PNCE   C6B 9625   6.587   5.607   6.092  0.2310  0.0006  0.1195
 1068PNCE   AM1 9626  13.338   3.618   5.092 -0.2849  0.1027 -0.2443
 1068PNCE   AM2 9627  13.547   3.324   5.067  0.4220  0.1410  0.1726
 1068PNCE   T1A 9628  13.637   3.917   5.177  0.1001  0.3174  0.1963
 1068PNCE   C2A 9629  13.847   4.096   5.536  0.0641 -0.1830  0.1795
 1068PNCE   C3A 9630  14.205   4.093   5.809 -0.1502  0.0022 -0.0540
 1068PNCE   C1B 9631  13.753   3.446   5.420  0.2740  0.2048 -0.0517
 1068PNCE   C2B 9632  13.944   3.647   5.782  0.0888 -0.1462  0.4607
 1068PNCE   C3B 9633  14.107   3.491   6.104  0.2045  0.1588 -0.0438
 1068PNCE   D4B 9634  14.397   3.277   6.343 -0.1168 -0.0610  0.0961
 1068PNCE   C5B 9635  14.569   3.443   6.763  0.2542 -0.2254  0.0318
 1068PNCE   C6B 9636  14.589   3.403   7.140 -0.3242  0.0168  0.2013
 1069PNCE   AM1 9637   4.317   0.172   4.298  0.1452 -0.2142 -0.1556
 1069PNCE   AM2 9638   4.308   0.458   4.113 -0.0441  0.0063  0.1167
 1069PNCE   T1A 9639   4.400   0.162   4.787  0.2171  0.0148  0.0219
 1069PNCE   C2A 9640   4.295   0.102   5.254 -0.3721 -0.0294 -0.1519
 1069PNCE   C3A 9641   4.294   0.116   5.742 -0.1694 -0.0168  0.0917
 1069PNCE   C1B 9642   4.514   0.600   4.620 -0.2749  0.1862 -0.0191
 1069PNCE   C2B 9643   4.269   0.577   5.024  0.0396 -0.3529 -0.0793
 1069PNCE   C3B 9644   3.869   0.376   5.263 -0.0843 -0.1110  0.0571
 1069PNCE   D4B 9645   3.792   0.359   5.669 -0.0767 -0.2043  0.2370
 1069PNCE   C5B 9646   3.448   0.183   5.722 -0.0006 -0.1509  0.1585
 1069PNCE   C6B 9647   3.348  -0.267   5.637  0.2277  0.1177 -0.0316
 1070PNCE   AM1 9648   2.957  15.045   4.256 -0.0760 -0.0671 -0.1667
 1070PNCE   AM2 9649   3.142  14.783   4.412 -0.2571  0.3014  0.1031
 1070PNCE   T1A 9650   3.020  15.460   4.541  0.1742 -0.1229 -0.2913
 1070PNCE   C2A 9651   3.285  15.615   4.954 -0.0370  0.1455  0.0037
 1070PNCE   C3A 9652   3.505  15.921   5.187 -0.2284 -0.1857 -0.2278
 1070PNCE   C1B 9653   2.983  15.030   4.797  0.1515  0.1862  0.1092
 1070PNCE   C2B 9654   2.992  15.262   5.114 -0.1020 -0.1625  0.0785
 1070PNCE   C3B 9655   3.273  15.192   5.468 -0.2779  0.2429  0.2130
 1070PNCE   D4B 9656   3.499  15.220   5.888 -0.0224 -0.2035  0.3247
 1070PNCE   C5B 9657   3.493  15.275   6.314  0.0970 -0.0914 -0.1215
 1070PNCE   C6B 9658   3.294  15.037   6.675 -0.1759 -0.2296 -0.1026
 1071CHOL   ROH 9659   4.805  10.513   8.978 -0.0859  0.0897 -0.0118
 1071CHOL    R1 9660   4.723  10.505   8.707 -0.0552 -0.0318 -0.0178
 1071CHOL    R2 9661   4.727  10.729   8.544 -0.1309 -0.0843 -0.0883
 1071CHOL    R3 9662   4.876  10.569   8.383 -0.0494 -0.0741 -0.0243
 1071CHOL    R4 9663   4.796  10.794   8.212  0.0920 -0.0219 -0.0312
 1071CHOL    R5 9664   4.767  10.582   8.169  0.0868 -0.0122 -0.0937
 1071CHOL    C1 9665   4.977  10.681   7.867  0.2984  0.0238  0.0622
 1071CHOL    C2 9666   4.766  10.711   7.517  0.1155 -0.0615  0.2215
 1072PNCE   AM1 9667   6.146   1.359   4.468  0.6071  0.2327  0.0660
 1072PNCE   AM2 9668   6.347   1.672   4.383 -0.1847  0.2456 -0.0278
 1072PNCE   T1A 9669   5.855   1.364   4.786 -0.2674  0.1968 -0.2039
 1072PNCE   C2A 9670   5.583   1.226   5.214 -0.0937 -0.0658  0.2111
 1072PNCE   C3A 9671   5.664   1.144   5.642 -0.0311 -0.0790 -0.0633
 1072PNCE   C1B 9672   6.479   1.859   4.733 -0.2398  0.3701  0.0965
 1072PNCE   C2B 9673   6.443   2.110   5.027  0.1888 -0.0199  0.0134
 1072PNCE   C3B 9674   6.341   2.252   5.398 -0.0054 -0.0160  0.0586
 1072PNCE   D4B 9675   6.307   2.420   5.803  0.0683 -0.0136 -0.2014
 1072PNCE   C5B 9676   5.952   2.402   5.983  0.2433 -0.1522  0.0538
 1072PNCE   C6B 9677   5.724   2.354   6.253  0.4058  0.1517  0.4334
 1073XCA    COO 9678  12.067  14.186   8.317  0.4443 -0.3939  0.0341
 1073XCA     C1 9679  11.915  14.224   7.899  0.1529  0.0146 -0.1773
 1073XCA     C2 9680  11.880  14.230   7.502 -0.3192 -0.4481 -0.0875
 1073XCA     C3 9681  12.283  14.373   7.139  0.0636 -0.1432  0.0410
 1073XCA     C4 9682  12.332  14.568   6.776  0.3866 -0.0014  0.3657
 1073XCA     C5 9683  12.418  14.398   6.472 -0.1049  0.0114 -0.4254
 1073XCA     C6 9684  12.594  14.565   6.075  0.0994 -0.4387  0.1376
 1074XCA    COO 9685   0.463   8.002   5.702  0.1220  0.1035  0.1904
 1074XCA     C1 9686   0.409   8.187   6.113 -0.0796  0.0755  0.1947
 1074XCA     C2 9687   0.650   8.499   6.357  0.0220  0.2126 -0.1872
 1074XCA     C3 9688   0.992   8.514   6.642 -0.1988  0.0740  0.4930
 1074XCA     C4 9689   1.420   8.473   6.746  0.0243 -0.0436 -0.2564
 1074XCA     C5 9690   1.791   8.512   6.762  0.1462 -0.1148 -0.2154
 1074XCA     C6 9691   2.135   8.368   6.513 -0.0751  0.4849  0.0203
 1075XCA    COO 9692   0.097   7.603   5.427  0.3993  0.0688 -0.0183
 1075XCA     C1 9693   0.070   7.745   5.857  0.0939 -0.0278  0.1440
 1075XCA     C2 9694   0.099   7.717   6.327  0.0413 -0.0543 -0.3695
 1075XCA     C3 9695   0.218   8.046   6.564  0.1451 -0.1239  0.0743
 1075XCA     C4 9696   0.325   8.416   6.814 -0.0059 -0.1828 -0.2866
 1075XCA     C5 9697   0.638   8.697   6.962  0.2839 -0.2162  0.0041
 1075XCA     C6 9698   0.604   8.591   7.399  0.0779 -0.0163 -0.1389
 1076PNCE   AM1 9699   8.393   6.167   4.631 -0.0160 -0.2242  0.1543
 1076PNCE   AM2 9700   8.285   6.492   4.771  0.4002 -0.0802 -0.2923
 1076PNCE   T1A 9701   8.348   5.835   4.963  0.0214  0.1171 -0.0806
 1076PNCE   C2A 9702   8.298   5.460   5.111 -0.1859 -0.1284  0.0901
 1076PNCE   C3A 9703   8.272   5.370   5.604  0.0537 -0.1913  0.0886
 1076PNCE   C1B 9704   8.112   6.269   5.113  0.3672 -0.0752 -0.0785
 1076PNCE   C2B 9705   8.249   5.949   5.404  0.1034  0.1817 -0.2535
 1076PNCE   C3B 9706   8.362   5.959   5.805 -0.2828  0.2791  0.0085
 1076PNCE   D4B 9707   8.532   5.950   6.196  0.0488 -0.1480 -0.0088
 1076PNCE   C5B 9708   8.307   5.908   6.498  0.3252 -0.1435 -0.1149
 1076PNCE   C6B 9709   7.885   6.153   6.653 -0.2226 -0.2108  0.1192
 1077CHOL   ROH 9710   1.521   6.231   7.375  0.1350 -0.0515  0.1488
 1077CHOL    R1 9711   1.639   5.974   7.349  0.1237 -0.0475  0.0557
 1077CHOL    R2 9712   1.490   5.747   7.298  0.1062 -0.0317  0.0434
 1077CHOL    R3 9713   1.664   5.720   7.090  0.0486  0.0121 -0.0114
 1077CHOL    R4 9714   1.562   5.449   7.138  0.0312  0.0064 -0.0629
 1077CHOL    R5 9715   1.772   5.510   7.130  0.0371 -0.0124 -0.1004
 1077CHOL    C1 9716   1.767   5.250   6.850 -0.0666  0.0697 -0.1762
 1077CHOL    C2 9717   1.583   5.200   6.397  0.0687 -0.2313  0.3638
 1078CHOL   ROH 9718   0.441   6.610   9.055  0.2152  0.0581  0.0540
 1078CHOL    R1 9719   0.353   6.620   8.786  0.1202  0.0163  0.0831
 1078CHOL    R2 9720   0.431   6.819   8.611  0.0173  0.0178  0.0388
 1078CHOL    R3 9721   0.508   6.610   8.457  0.0088  0.0212  0.0300
 1078CHOL    R4 9722   0.490   6.836   8.271  0.0518  0.0401  0.0461
 1078CHOL    R5 9723   0.392   6.642   8.250  0.0317  0.0519  0.0213
 1078CHOL    C1 9724   0.597   6.649   7.928  0.0638  0.0564  0.0420
 1078CHOL    C2 9725   0.669   6.540   7.535  0.0485  0.0492  0.0215
 1079XCA    COO 9726   4.949   9.268   9.088 -0.2233  0.2243 -0.1654
 1079XCA     C1 9727   4.847   9.014   8.773 -0.3318  0.1171 -0.3194
 1079XCA     C2 9728   4.839   8.682   8.501  0.0760 -0.4828  0.5112
 1079XCA     C3 9729   4.624   8.530   8.285 -0.0539 -0.1715  0.1421
 1079XCA     C4 9730   4.344   8.338   7.910 -0.1983  0.0774 -0.1479
 1079XCA     C5 9731   4.302   8.544   7.524  0.1591  0.1612 -0.3402
 1079XCA     C6 9732   4.197   8.355   7.059  0.3266  0.3098  0.2028
 1080PNCE   AM1 9733   6.888   4.398   4.405 -0.1640 -0.1400 -0.1714
 1080PNCE   AM2 9734   6.674   4.255   4.597  0.1781  0.1935 -0.0872
 1080PNCE   T1A 9735   6.995   4.464   4.922 -0.1166 -0.1474  0.0118
 1080PNCE   C2A 9736   6.917   4.309   5.303 -0.0664  0.0595  0.0334
 1080PNCE   C3A 9737   7.033   4.288   5.753 -0.3871 -0.2683 -0.0540
 1080PNCE   C1B 9738   6.585   4.094   4.992  0.0270  0.1438 -0.0326
 1080PNCE   C2B 9739   6.646   3.954   5.348 -0.0808  0.1726  0.1692
 1080PNCE   C3B 9740   6.725   3.808   5.711  0.1195  0.1874 -0.0605
 1080PNCE   D4B 9741   6.877   3.696   6.182  0.0320 -0.0775  0.0958
 1080PNCE   C5B 9742   6.848   3.843   6.602  0.1025  0.1271 -0.0568
 1080PNCE   C6B 9743   7.163   4.016   6.784 -0.1159  0.2943 -0.0630
 1081CHOL   ROH 9744  10.060   0.316   8.161  0.0843 -0.3300 -0.2054
 1081CHOL    R1 9745  10.010   0.376   7.888  0.0762 -0.2075 -0.1778
 1081CHOL    R2 9746  10.025   0.632   7.787  0.0369 -0.1565 -0.0560
 1081CHOL    R3 9747  10.197   0.518   7.611  0.0550 -0.0453 -0.1102
 1081CHOL    R4 9748  10.061   0.728   7.457 -0.1335 -0.1309 -0.0673
 1081CHOL    R5 9749  10.077   0.518   7.403 -0.0136 -0.1225 -0.0716
 1081CHOL    C1 9750  10.243   0.677   7.099 -0.2158 -0.0117 -0.1249
 1081CHOL    C2 9751  10.512   0.676   6.819  0.2666  0.1827  0.2089
 1082PNCE   AM1 9752  10.564  13.880   4.272 -0.1268  0.0436 -0.4373
 1082PNCE   AM2 9753  10.476  14.233   4.218 -0.2544  0.0051 -0.1546
 1082PNCE   T1A 9754  10.904  14.087   4.439 -0.0817  0.0860  0.0462
 1082PNCE   C2A 9755  11.183  14.048   4.557  0.2154  0.0654  0.1005
 1082PNCE   C3A 9756  11.609  13.945   4.678 -0.0835 -0.0305  0.0422
 1082PNCE   C1B 9757  10.662  14.428   4.631  0.0449 -0.3367 -0.1961
 1082PNCE   C2B 9758  10.870  14.268   5.002 -0.1745  0.1799  0.1781
 1082PNCE   C3B 9759  11.161  14.011   5.160  0.0178 -0.1193  0.0764
 1082PNCE   D4B 9760  11.437  13.777   5.250 -0.1993  0.1479 -0.2992
 1082PNCE   C5B 9761  11.456  13.334   5.315 -0.1468 -0.2211 -0.1234
 1082PNCE   C6B 9762  11.513  12.956   5.541  0.1451 -0.2963  0.0267
 1083CHOL   ROH 9763   3.320   9.032   6.484  0.0329  0.0615 -0.0202
 1083CHOL    R1 9764   3.337   9.071   6.763  0.0082  0.0407 -0.0147
 1083CHOL    R2 9765   3.145   8.979   6.939 -0.0337  0.0668 -0.0391
 1083CHOL    R3 9766   3.357   8.860   7.059 -0.0695  0.0162 -0.0285
 1083CHOL    R4 9767   3.133   8.807   7.239 -0.1474 -0.2122 -0.2004
 1083CHOL    R5 9768   3.323   8.898   7.293 -0.2056 -0.2100 -0.0129
 1083CHOL    C1 9769   3.325   8.596   7.526 -0.2472 -0.4223 -0.2843
 1083CHOL    C2 9770   3.483   8.210   7.696 -0.2225  0.0604 -0.0202
 1084XCA    COO 9771   2.765   9.729   5.551 -0.1752  0.0058  0.0648
 1084XCA     C1 9772   2.628   9.566   5.926  0.5924 -0.1849  0.1608
 1084XCA     C2 9773   2.639   9.696   6.425  0.0443 -0.2339  0.0724
 1084XCA     C3 9774   2.906   9.889   6.683  0.2858 -0.1560 -0.1594
 1084XCA     C4 9775   3.151  10.187   6.600  0.2949  0.0628 -0.0257
 1084XCA     C5 9776   3.517  10.409   6.595 -0.1528  0.1825 -0.3601
 1084XCA     C6 9777   3.805  10.702   6.476 -0.2288 -0.0639 -0.1148
 1085PNCE   AM1 9778   1.199   1.425   4.855 -0.2116  0.2515 -0.1254
 1085PNCE   AM2 9779   1.181   1.095   4.761  0.2307 -0.2783  0.0182
 1085PNCE   T1A 9780   1.119   1.417   5.341 -0.3319 -0.0822  0.0154
 1085PNCE   C2A 9781   0.818   1.507   5.682 -0.1141 -0.2650  0.0892
 1085PNCE   C3A 9782   0.602   1.329   5.956 -0.3429  0.0570  0.3135
 1085PNCE   C1B 9783   1.082   0.873   5.112 -0.0890  0.0919 -0.4505
 1085PNCE   C2B 9784   1.083   0.564   5.417 -0.0903 -0.2977 -0.1761
 1085PNCE   C3B 9785   0.844   0.416   5.765  0.1915 -0.0180 -0.0970
 1085PNCE   D4B 9786   0.780   0.265   6.098  0.0013  0.3417  0.2007
 1085PNCE   C5B 9787   0.331   0.215   6.445  0.1791 -0.4365 -0.1245
 1085PNCE   C6B 9788   0.111   0.139   6.943 -0.0903  0.0589 -0.0892
 1086PNCE   AM1 9789  11.790  12.417   3.999 -0.1274  0.2054 -0.0668
 1086PNCE   AM2 9790  12.001  12.348   3.850  0.0234  0.3022  0.1127
 1086PNCE   T1A 9791  12.042  12.205   4.359 -0.2364  0.1733  0.0123
 1086PNCE   C2A 9792  11.860  11.965   4.710  0.0101  0.1318  0.2498
 1086PNCE   C3A 9793  11.900  11.841   5.175 -0.2510 -0.1130 -0.0592
 1086PNCE   C1B 9794  11.696  11.954   4.114 -0.0429  0.1803 -0.1321
 1086PNCE   C2B 9795  11.396  12.032   4.307 -0.2066  0.1887 -0.0866
 1086PNCE   C3B 9796  11.152  11.994   4.555  0.1212 -0.0325 -0.1123
 1086PNCE   D4B 9797  10.994  11.860   4.883  0.0226  0.0272 -0.1546
 1086PNCE   C5B 9798  10.646  11.834   5.174 -0.0597 -0.2744  0.1393
 1086PNCE   C6B 9799  10.149  11.777   5.225 -0.0831 -0.4775 -0.0545
 1087CHOL   ROH 9800   3.132   0.178   4.715  0.1856 -0.3827 -0.0715
 1087CHOL    R1 9801   2.995   0.188   4.963  0.1650 -0.1374 -0.0912
 1087CHOL    R2 9802   2.938  -0.038   5.111  0.0290 -0.0048  0.0603
 1087CHOL    R3 9803   3.066   0.099   5.308  0.0806  0.0644 -0.0196
 1087CHOL    R4 9804   2.892  -0.090   5.449  0.1661  0.0668  0.0913
 1087CHOL    R5 9805   2.900   0.125   5.479  0.1399  0.0760  0.0373
 1087CHOL    C1 9806   2.985   0.007   5.832  0.2944  0.1734  0.0345
 1087CHOL    C2 9807   2.783  -0.089   6.203  0.1683 -0.0429  0.2526
 1088CHOL   ROH 9808   3.345  14.745   4.829 -0.0537  0.3802 -0.1406
 1088CHOL    R1 9809   3.195  14.676   5.058  0.2773  0.2293  0.0373
 1088CHOL    R2 9810   3.219  14.810   5.298  0.1585  0.5020 -0.1014
 1088CHOL    R3 9811   2.949  14.838   5.273  0.0590 -0.1405  0.0758
 1088CHOL    R4 9812   2.997  14.827   5.563  0.3767  0.6434  0.0763
 1088CHOL    R5 9813   2.859  14.702   5.449  0.5219  0.0628  0.4941
 1088CHOL    C1 9814   2.615  14.863   5.694  0.4105  0.1227  0.3461
 1088CHOL    C2 9815   2.320  15.073   5.822 -0.2149  0.2892  0.1761
 1089XCA    COO 9816   7.206  11.957   5.270 -0.0980 -0.1333  0.0779
 1089XCA     C1 9817   7.256  11.677   5.620  0.2198  0.0615  0.0923
 1089XCA     C2 9818   7.405  11.380   5.982  0.1420 -0.1579 -0.0103
 1089XCA     C3 9819   7.568  11.174   6.342  0.2077  0.0853 -0.0811
 1089XCA     C4 9820   7.722  10.961   6.706  0.1826 -0.1041 -0.2405
 1089XCA     C5 9821   7.640  10.555   6.917 -0.0350  0.2493  0.0964
 1089XCA     C6 9822   7.521  10.168   7.036 -0.2246  0.1235  0.0822
 1090CHOL   ROH 9823  11.464   6.519   5.160  0.0927  0.0655 -0.0991
 1090CHOL    R1 9824  11.632   6.639   5.354  0.0926 -0.0678 -0.0150
 1090CHOL    R2 9825  11.598   6.900   5.439  0.2181 -0.0602  0.0144
 1090CHOL    R3 9826  11.592   6.784   5.685  0.0541 -0.0976 -0.0064
 1090CHOL    R4 9827  11.687   7.058   5.734  0.1175 -0.1338  0.0844
 1090CHOL    R5 9828  11.784   6.873   5.797  0.0259 -0.1758  0.1062
 1090CHOL    C1 9829  11.733   7.041   6.136 -0.0951 -0.2116  0.1056
 1090CHOL    C2 9830  11.984   7.149   6.355 -0.2796  0.1225  0.1851
 1091XCA    COO 9831   7.228   8.937   5.414 -0.3732  0.0424 -0.3019
 1091XCA     C1 9832   7.509   9.027   5.811  0.0989  0.1651 -0.0533
 1091XCA     C2 9833   7.804   9.176   6.217  0.0095  0.0465 -0.0220
 1091XCA     C3 9834   8.192   9.240   6.266 -0.0122 -0.0487  0.1020
 1091XCA     C4 9835   8.597   9.260   6.575  0.0869 -0.0860 -0.0756
 1091XCA     C5 9836   8.902   9.412   6.840 -0.3040  0.1089  0.1515
 1091XCA     C6 9837   9.199   9.093   7.124 -0.1135 -0.1259 -0.0116
 1092CHOL   ROH 9838   4.863  10.773   5.485  0.0660 -0.2057  0.0079
 1092CHOL    R1 9839   5.000  10.667   5.708  0.0362 -0.0136  0.1190
 1092CHOL    R2 9840   5.067  10.821   5.928 -0.2234  0.1159  0.1103
 1092CHOL    R3 9841   4.934  10.626   6.064 -0.1268  0.0397  0.0961
 1092CHOL    R4 9842   5.057  10.792   6.272 -0.2204  0.0987  0.1087
 1092CHOL    R5 9843   5.076  10.576   6.250 -0.1055  0.1079  0.0999
 1092CHOL    C1 9844   4.926  10.593   6.600 -0.1279  0.0170  0.0946
 1092CHOL    C2 9845   4.926  10.819   7.018  0.1720 -0.1289  0.1717
 1093XCA    COO 9846   7.664  11.967   8.400  0.1234  0.0182  0.2241
 1093XCA     C1 9847   7.620  11.893   7.980 -0.3062 -0.0053 -0.0675
 1093XCA     C2 9848   7.591  12.069   7.639  0.1465  0.0643  0.0850
 1093XCA     C3 9849   7.634  12.133   7.218  0.0940 -0.0808  0.1706
 1093XCA     C4 9850   7.458  12.061   6.814  0.1858 -0.1286 -0.0711
 1093XCA     C5 9851   7.408  12.294   6.389  0.1404 -0.0909  0.0113
 1093XCA     C6 9852   7.665  12.483   6.037 -0.1318  0.3092 -0.0576
 1094PNCE   AM1 9853  11.718   2.519   5.550 -0.0771  0.1066 -0.0204
 1094PNCE   AM2 9854  11.607   2.272   5.431  0.1015 -0.0943  0.0294
 1094PNCE   T1A 9855  11.827   2.272   5.900 -0.0700  0.0596  0.1986
 1094PNCE   C2A 9856  12.126   2.018   6.189 -0.0410  0.0564  0.0541
 1094PNCE   C3A 9857  12.329   1.771   6.414  0.0230  0.0018  0.0212
 1094PNCE   C1B 9858  11.664   1.877   5.696 -0.0022  0.1577  0.0532
 1094PNCE   C2B 9859  11.669   1.600   6.042  0.1736  0.1774 -0.1004
 1094PNCE   C3B 9860  11.441   1.544   6.432 -0.0250 -0.1768 -0.1241
 1094PNCE   D4B 9861  11.334   1.855   6.634  0.1861  0.0337  0.0291
 1094PNCE   C5B 9862  11.178   2.006   6.962 -0.3240 -0.0652 -0.2549
 1094PNCE   C6B 9863  11.317   2.173   7.255  0.2011  0.1215 -0.0780
 1095XCA    COO 9864   1.008  11.478   8.693  0.1956 -0.2684  0.0160
 1095XCA     C1 9865   0.740  11.303   8.306  0.0819  0.4590  0.0820
 1095XCA     C2 9866   1.042  11.152   7.985 -0.0410  0.0664 -0.0075
 1095XCA     C3 9867   1.029  10.766   7.705 -0.0801  0.0847  0.1465
 1095XCA     C4 9868   0.906  10.609   7.314 -0.0726  0.2079 -0.0787
 1095XCA     C5 9869   0.685  10.793   7.058  0.0788  0.1161  0.0482
 1095XCA     C6 9870   0.271  10.829   6.975  0.0394  0.1173 -0.1073
 1096XCA    COO 9871   5.733   2.827   4.786 -0.3112  0.3324 -0.3581
 1096XCA     C1 9872   5.738   2.874   5.171 -0.0695 -0.0545 -0.1467
 1096XCA     C2 9873   5.632   2.699   5.540  0.3259  0.1837  0.0716
 1096XCA     C3 9874   5.460   2.288   5.797 -0.1604 -0.3841  0.0164
 1096XCA     C4 9875   5.535   1.927   6.047  0.1235  0.1564  0.0361
 1096XCA     C5 9876   5.696   1.834   6.483 -0.2359  0.4221 -0.2018
 1096XCA     C6 9877   5.702   1.508   6.829 -0.2094 -0.0443  0.0040
 1097PNCE   AM1 9878   1.723  10.821   4.751  0.3136 -0.1850  0.0794
 1097PNCE   AM2 9879   2.097  10.650   4.760  0.1339  0.2514 -0.0501
 1097PNCE   T1A 9880   1.596  11.123   4.976 -0.0609  0.0744 -0.0519
 1097PNCE   C2A 9881   1.503  11.424   5.321  0.1126 -0.1674 -0.1012
 1097PNCE   C3A 9882   1.306  11.565   5.618 -0.0485 -0.1854  0.0238
 1097PNCE   C1B 9883   2.012  10.738   5.117  0.1409  0.0664 -0.0720
 1097PNCE   C2B 9884   2.310  10.881   5.357  0.2238 -0.1976  0.2280
 1097PNCE   C3B 9885   2.259  11.045   5.705  0.1607  0.1936  0.1434
 1097PNCE   D4B 9886   2.164  11.288   6.047 -0.0846  0.2265 -0.1317
 1097PNCE   C5B 9887   1.949  11.112   6.481  0.0617 -0.3216 -0.1660
 1097PNCE   C6B 9888   2.067  10.706   6.695 -0.0787 -0.1841  0.1127
 1098PNCE   AM1 9889   9.968   9.318   4.891  0.1535 -0.0398 -0.3018
 1098PNCE   AM2 9890   9.756   9.187   4.778 -0.1706  0.0646  0.0382
 1098PNCE   T1A 9891  10.360   9.298   5.087  0.2396  0.2605 -0.0377
 1098PNCE   C2A 9892  10.762   9.131   5.252 -0.2664 -0.1398  0.2946
 1098PNCE   C3A 9893  11.008   8.956   5.574 -0.0693  0.0872  0.0479
 1098PNCE   C1B 9894   9.851   9.081   5.267 -0.1835 -0.0054  0.1638
 1098PNCE   C2B 9895   9.851   9.022   5.630  0.1469  0.0187  0.0100
 1098PNCE   C3B 9896   9.841   8.821   6.034 -0.0573  0.1547  0.0446
 1098PNCE   D4B 9897  10.048   8.939   6.400 -0.0629  0.1361  0.1685
 1098PNCE   C5B 9898  10.232   9.389   6.458  0.2832  0.1209 -0.1716
 1098PNCE   C6B 9899  10.468   9.668   6.557 -0.1955 -0.0179 -0.2646
 1099PNCE   AM1 9900   6.809   5.332   8.867 -0.1750  0.0629  0.0510
 1099PNCE   AM2 9901   6.529   5.470   8.902  0.2260 -0.0161  0.2555
 1099PNCE   T1A 9902   6.937   5.150   8.534  0.0532  0.0105  0.0982
 1099PNCE   C2A 9903   7.090   5.238   8.077 -0.1422 -0.2363 -0.0936
 1099PNCE   C3A 9904   7.514   5.073   8.012  0.0070 -0.0596  0.0524
 1099PNCE   C1B 9905   6.486   5.722   8.449 -0.0706  0.3593 -0.0329
 1099PNCE   C2B 9906   6.303   5.917   8.150 -0.0090  0.2672  0.1067
 1099PNCE   C3B 9907   6.293   6.155   7.786  0.2304  0.0396 -0.1291
 1099PNCE   D4B 9908   6.490   6.226   7.444  0.1889 -0.1830 -0.1468
 1099PNCE   C5B 9909   6.822   5.970   7.485 -0.3332 -0.1526 -0.1483
 1099PNCE   C6B 9910   7.268   5.848   7.320 -0.1991  0.1221  0.0577
 1100CHOL   ROH 9911  10.894   3.183   6.874 -0.0609  0.1488 -0.0967
 1100CHOL    R1 9912  11.139   3.321   6.911 -0.0190  0.0537 -0.0144
 1100CHOL    R2 9913  11.166   3.531   7.088  0.0059  0.0344  0.0035
 1100CHOL    R3 9914  11.371   3.380   7.185 -0.0806 -0.0480  0.0606
 1100CHOL    R4 9915  11.399   3.638   7.320  0.1202  0.0184 -0.1027
 1100CHOL    R5 9916  11.553   3.534   7.207  0.0300 -0.1581 -0.0663
 1100CHOL    C1 9917  11.727   3.559   7.545  0.1056 -0.0682 -0.1110
 1100CHOL    C2 9918  11.970   3.699   7.827  0.0284 -0.1067  0.4265
 1101XCA    COO 9919  12.196   1.263   4.850 -0.3795 -0.2617  0.5326
 1101XCA     C1 9920  12.466   1.084   5.077  0.0419 -0.2675  0.0259
 1101XCA     C2 9921  12.378   0.753   5.318  0.0458 -0.2271  0.0498
 1101XCA     C3 9922  12.493   0.543   5.650  0.0017  0.0787 -0.1352
 1101XCA     C4 9923  12.573   0.116   5.709  0.1377 -0.1734 -0.0043
 1101XCA     C5 9924  12.958  -0.009   5.992  0.0072 -0.1089  0.0416
 1101XCA     C6 9925  13.446   0.285   5.949  0.4518 -0.4762  0.1406
 1102PNCE   AM1 9926   0.741  11.818   4.500 -0.0188  0.3301 -0.0628
 1102PNCE   AM2 9927   1.057  11.632   4.572  0.1829 -0.2336  0.2921
 1102PNCE   T1A 9928   0.646  11.896   4.967 -0.0898  0.1789  0.0057
 1102PNCE   C2A 9929   0.673  11.647   5.353  0.0514  0.0582 -0.0518
 1102PNCE   C3A 9930   0.852  11.745   5.748  0.0892 -0.0605  0.3596
 1102PNCE   C1B 9931   1.169  11.689   4.964  0.0173 -0.1382 -0.1601
 1102PNCE   C2B 9932   1.069  11.928   5.353  0.0604 -0.0352 -0.0515
 1102PNCE   C3B 9933   1.128  12.209   5.626 -0.0226  0.0583 -0.1265
 1102PNCE   D4B 9934   0.868  12.600   5.817  0.1578 -0.5290  0.1892
 1102PNCE   C5B 9935   0.465  12.836   5.720 -0.1900  0.0849  0.1979
 1102PNCE   C6B 9936   0.475  13.232   5.624  0.4350  0.0335  0.4840
 1103CHOL   ROH 9937   2.517   9.754   7.022 -0.0272 -0.0858  0.1100
 1103CHOL    R1 9938   2.253   9.652   7.018 -0.0359 -0.0627  0.0813
 1103CHOL    R2 9939   2.054   9.745   7.185 -0.0977  0.0931 -0.0777
 1103CHOL    R3 9940   1.920   9.782   6.952  0.0030 -0.0811 -0.1650
 1103CHOL    R4 9941   1.710   9.752   7.155 -0.0892  0.5510 -0.1383
 1103CHOL    R5 9942   1.729   9.638   6.970 -0.2167  0.2192  0.0403
 1103CHOL    C1 9943   1.384   9.791   6.919  0.0103  0.6539 -0.2555
 1103CHOL    C2 9944   1.052   9.746   7.203  0.3912 -0.0477  0.1810
 1104XCA    COO 9945   5.934   9.720   5.400  0.1383  0.0904 -0.0073
 1104XCA     C1 9946   5.913   9.882   5.765  0.0472 -0.1678 -0.1183
 1104XCA     C2 9947   5.794   9.921   6.260 -0.2252  0.1932 -0.2858
 1104XCA     C3 9948   5.953  10.239   6.594 -0.3282 -0.1077  0.1826
 1104XCA     C4 9949   6.020  10.454   7.088 -0.0406 -0.1212 -0.1442
 1104XCA     C5 9950   5.751  10.352   7.435  0.0128  0.1126 -0.1206
 1104XCA     C6 9951   5.651   9.994   7.702 -0.0886 -0.0640  0.1410
 1105CHOL   ROH 9952  12.720   8.825   5.098 -0.0543  0.0197  0.1176
 1105CHOL    R1 9953  12.670   8.796   5.375 -0.0928 -0.1750  0.0911
 1105CHOL    R2 9954  12.828   8.639   5.538  0.0867 -0.0247  0.0619
 1105CHOL    R3 9955  12.848   8.867   5.684 -0.2802 -0.0572  0.1748
 1105CHOL    R4 9956  12.869   8.650   5.881  0.3862 -0.1518  0.0333
 1105CHOL    R5 9957  12.730   8.818   5.887  0.0091 -0.4498  0.2646
 1105CHOL    C1 9958  12.912   8.872   6.218  0.2161 -0.2562  0.1226
 1105CHOL    C2 9959  12.967   8.763   6.608 -0.2217  0.3360 -0.1963
 1106PNCE   AM1 9960   7.200  12.180   4.778 -0.1309 -0.0682 -0.2127
 1106PNCE   AM2 9961   6.972  11.900   4.701 -0.1101 -0.0585  0.1002
 1106PNCE   T1A 9962   7.383  12.415   5.183 -0.2828 -0.0431 -0.1553
 1106PNCE   C2A 9963   7.287  12.522   5.681 -0.2287 -0.0240  0.0832
 1106PNCE   C3A 9964   7.074  12.610   6.122 -0.3058  0.4319  0.1709
 1106PNCE   C1B 9965   6.583  11.699   4.987  0.1800  0.1814  0.0940
 1106PNCE   C2B 9966   6.260  11.783   5.263 -0.2004 -0.1298  0.0904
 1106PNCE   C3B 9967   6.000  12.081   5.526 -0.0661 -0.1988 -0.3261
 1106PNCE   D4B 9968   6.083  12.390   5.822  0.0241  0.0064  0.3103
 1106PNCE   C5B 9969   6.299  12.291   6.259  0.0205  0.0461 -0.0559
 1106PNCE   C6B 9970   6.523  12.406   6.575  0.1947 -0.1846  0.0283
 1107CHOL   ROH 9971   4.325   8.605   5.572 -0.1002 -0.2724  0.0052
 1107CHOL    R1 9972   4.410   8.584   5.841 -0.0677 -0.2237 -0.0010
 1107CHOL    R2 9973   4.386   8.792   6.021  0.0334 -0.1625 -0.0582
 1107CHOL    R3 9974   4.255   8.606   6.170 -0.0111 -0.0721  0.0166
 1107CHOL    R4 9975   4.355   8.800   6.365  0.0506 -0.0237 -0.0596
 1107CHOL    R5 9976   4.387   8.585   6.368 -0.0075 -0.0329  0.0195
 1107CHOL    C1 9977   4.214   8.631   6.705  0.0189  0.1421  0.0099
 1107CHOL    C2 9978   4.162   8.829   7.083  0.0664  0.0352 -0.0566
 1108CHOL   ROH 9979   5.102  13.220   5.048 -0.3337  0.1186  0.1572
 1108CHOL    R1 9980   5.291  13.210   5.258 -0.1416  0.0433 -0.0139
 1108CHOL    R2 9981   5.442  13.429   5.333 -0.0920  0.0298 -0.0490
 1108CHOL    R3 9982   5.339  13.375   5.579  0.1259 -0.0919  0.0167
 1108CHOL    R4 9983   5.563  13.556   5.631 -0.1487  0.2905 -0.1365
 1108CHOL    R5 9984   5.530  13.361   5.722  0.2230  0.2547 -0.0781
 1108CHOL    C1 9985   5.537  13.580   6.035  0.0228  0.3283 -0.1258
 1108CHOL    C2 9986   5.623  13.811   6.362  0.0314 -0.1127 -0.1527
 1109CHOL   ROH 9987   9.215   5.775   8.866 -0.0329  0.1194  0.0682
 1109CHOL    R1 9988   9.241   5.864   8.598  0.0583  0.0654  0.0594
 1109CHOL    R2 9989   9.390   5.727   8.410 -0.0658 -0.0964  0.0819
 1109CHOL    R3 9990   9.158   5.735   8.268 -0.0545  0.1068  0.0700
 1109CHOL    R4 9991   9.369   5.771   8.068  0.0101 -0.3026  0.0490
 1109CHOL    R5 9992   9.197   5.901   8.100  0.1715 -0.0529 -0.0435
 1109CHOL    C1 9993   9.140   5.804   7.735  0.0650 -0.2319  0.0188
 1109CHOL    C2 9994   9.111   6.040   7.391 -0.1683  0.0453 -0.2090
 1110PNCE   AM1 9995   7.957   7.409   8.842 -0.2168 -0.1349 -0.0263
 1110PNCE   AM2 9996   8.075   7.074   9.075 -0.0329 -0.2561  0.1831
 1110PNCE   T1A 9997   7.653   7.756   8.803 -0.0378 -0.1301 -0.0298
 1110PNCE   C2A 9998   7.608   8.123   8.608 -0.1331  0.1504  0.0849
 1110PNCE   C3A 9999   7.844   8.462   8.831  0.2537  0.1345 -0.0029
 1110PNCE   C1B10000   8.065   6.973   8.633  0.0461 -0.1814  0.1481
 1110PNCE   C2B10001   8.158   6.796   8.226  0.2187  0.1101 -0.3312
 1110PNCE   C3B10002   8.186   6.789   7.883  0.0578  0.1828  0.1540
 1110PNCE   D4B10003   8.389   6.619   7.611  0.0673 -0.0483 -0.0726
 1110PNCE   C5B10004   8.417   6.788   7.080  0.1232 -0.0328 -0.0658
 1110PNCE   C6B10005   8.451   6.548   6.714 -0.2015 -0.3491  0.3150
 1111XCA    COO10006   3.109  11.749   4.391  0.0614  0.4480 -0.2046
 1111XCA     C110007   3.268  12.056   4.765  0.0534 -0.1659 -0.1228
 1111XCA     C210008   3.269  12.308   5.201  0.3315 -0.1118 -0.1949
 1111XCA     C310009   2.817  12.313   5.441  0.0868  0.1990 -0.0028
 1111XCA     C410010   2.471  12.394   5.727 -0.0641  0.0912  0.1262
 1111XCA     C510011   2.371  12.578   6.216 -0.2324  0.0622 -0.2657
 1111XCA     C610012   2.211  12.726   6.564 -0.3518  0.0087 -0.2944
 1112CHOL   ROH10013  12.800  10.158   7.930  0.0085  0.0163  0.0184
 1112CHOL    R110014  12.952  10.223   7.700 -0.0103  0.0648  0.0189
 1112CHOL    R210015  12.968  10.056   7.480  0.1342  0.0164  0.0625
 1112CHOL    R310016  12.887  10.278   7.346 -0.0108 -0.0753 -0.0027
 1112CHOL    R410017  12.989  10.099   7.138  0.1770 -0.0357  0.0588
 1112CHOL    R510018  13.049  10.306   7.173  0.0056  0.0179  0.0293
 1112CHOL    C110019  12.925  10.332   6.813  0.0659 -0.1521 -0.0046
 1112CHOL    C210020  12.830  10.505   6.415 -0.1104  0.1898  0.0894
 1113CHOL   ROH10021  13.910  13.667   4.968 -0.0121 -0.0408  0.0488
 1113CHOL    R110022  13.720  13.492   5.083 -0.1511  0.1815  0.1632
 1113CHOL    R210023  13.786  13.240   5.175 -0.4168  0.0435 -0.0173
 1113CHOL    R310024  13.671  13.329   5.405 -0.0591  0.1111  0.1426
 1113CHOL    R410025  13.756  13.055   5.466 -0.2666  0.0011 -0.0278
 1113CHOL    R510026  13.556  13.137   5.492 -0.1577  0.2050  0.2266
 1113CHOL    C110027  13.631  13.031   5.851  0.1566  0.0399  0.1162
 1113CHOL    C210028  13.724  12.642   6.068 -0.0033  0.1458  0.0770
 1114XCA    COO10029   7.866  12.402   5.159  0.1379 -0.1861  0.2102
 1114XCA     C110030   7.739  12.642   5.408  0.0224  0.0186 -0.2266
 1114XCA     C210031   7.931  12.797   5.790 -0.1704  0.0149  0.2010
 1114XCA     C310032   8.379  12.952   5.981  0.1500  0.1430 -0.1063
 1114XCA     C410033   8.408  13.348   6.199  0.2410  0.1818 -0.0953
 1114XCA     C510034   8.402  13.757   6.487 -0.2100 -0.0075 -0.0163
 1114XCA     C610035   8.308  14.189   6.670  0.0833  0.0296  0.1076
 1115CHOL   ROH10036  10.378   8.566   8.071 -0.1283  0.2326  0.0228
 1115CHOL    R110037  10.227   8.420   7.882  0.0239  0.0508  0.0391
 1115CHOL    R210038  10.067   8.542   7.692 -0.2170 -0.1364  0.1160
 1115CHOL    R310039  10.213   8.390   7.520 -0.0464  0.1118  0.0369
 1115CHOL    R410040   9.943   8.396   7.404 -0.1493 -0.4221  0.2272
 1115CHOL    R510041  10.062   8.219   7.449  0.2267 -0.1945  0.1733
 1115CHOL    C110042  10.008   8.170   7.074  0.0504 -0.3554  0.2177
 1115CHOL    C210043   9.955   7.995   6.785  0.0600 -0.2058 -0.1543
 1116XCA    COO10044  13.552   2.954   5.394  0.1812 -0.1050 -0.0674
 1116XCA     C110045  13.634   3.151   5.826  0.0745  0.1358 -0.0750
 1116XCA     C210046  13.650   3.403   6.152  0.0087  0.0036  0.0815
 1116XCA     C310047  13.499   3.641   6.486  0.1339  0.2913  0.2337
 1116XCA     C410048  13.100   3.674   6.826  0.4272  0.1242  0.3154
 1116XCA     C510049  12.856   4.028   6.850  0.2623  0.3417  0.4097
 1116XCA     C610050  12.727   4.504   7.025  0.2130  0.1963  0.0225
 1117PNCE   AM110051   6.139   2.468   4.623  0.2075 -0.0906 -0.2098
 1117PNCE   AM210052   6.364   2.319   4.589 -0.0019 -0.1056  0.0786
 1117PNCE   T1A10053   6.068   2.495   5.042 -0.0841 -0.0054 -0.1106
 1117PNCE   C2A10054   6.108   2.696   5.455 -0.1730 -0.1459 -0.2480
 1117PNCE   C3A10055   5.994   2.865   5.825 -0.1264 -0.0165 -0.2793
 1117PNCE   C1B10056   6.570   2.652   4.845  0.3024 -0.4996  0.0438
 1117PNCE   C2B10057   6.625   2.820   5.230  0.1692  0.2807 -0.3924
 1117PNCE   C3B10058   6.563   2.873   5.609 -0.2034 -0.1045 -0.0492
 1117PNCE   D4B10059   6.578   2.961   5.892  0.2179 -0.1129 -0.3153
 1117PNCE   C5B10060   6.513   2.793   6.264  0.0372  0.1102  0.2143
 1117PNCE   C6B10061   6.134   2.506   6.492 -0.1279  0.1285 -0.0437
 1118PNCE   AM110062   5.725   2.127   4.754 -0.1172  0.2171 -0.0315
 1118PNCE   AM210063   5.935   2.053   4.780 -0.1618  0.0754 -0.0116
 1118PNCE   T1A10064   5.268   2.210   4.943  0.0672 -0.0195 -0.1974
 1118PNCE   C2A10065   5.177   2.115   5.450  0.0102  0.1906  0.3478
 1118PNCE   C3A10066   4.891   1.968   5.662  0.1217 -0.3766 -0.0864
 1118PNCE   C1B10067   6.054   1.749   5.034 -0.1381  0.2302  0.1044
 1118PNCE   C2B10068   5.968   1.512   5.331 -0.1649 -0.3605  0.0345
 1118PNCE   C3B10069   6.006   1.558   5.766  0.3857  0.0166 -0.3180
 1118PNCE   D4B10070   6.067   1.295   6.107 -0.0098  0.2025  0.1484
 1118PNCE   C5B10071   6.042   1.527   6.382  0.1652  0.0369 -0.0593
 1118PNCE   C6B10072   6.179   1.946   6.387  0.1295 -0.0106 -0.1053
 1119PNCE   AM110073  11.997  11.063   4.227  0.0784 -0.0785 -0.3000
 1119PNCE   AM210074  12.100  11.322   4.125 -0.1059  0.0780  0.1419
 1119PNCE   T1A10075  11.917  10.709   4.442 -0.4012  0.1646  0.0230
 1119PNCE   C2A10076  12.188  10.501   4.629  0.0328  0.1663  0.0882
 1119PNCE   C3A10077  12.537  10.523   4.964 -0.0299 -0.4552  0.3629
 1119PNCE   C1B10078  11.785  11.559   4.371 -0.3402 -0.0695  0.2614
 1119PNCE   C2B10079  11.490  11.665   4.654  0.5244  0.2635 -0.0620
 1119PNCE   C3B10080  11.445  11.651   5.065  0.0477 -0.3818  0.0609
 1119PNCE   D4B10081  11.607  11.499   5.435 -0.0384 -0.0283  0.0045
 1119PNCE   C5B10082  11.692  11.862   5.767  0.1399  0.0540 -0.0693
 1119PNCE   C6B10083  11.844  12.044   6.042 -0.1994 -0.2072  0.0440
 1120PNCE   AM110084  14.347   3.385   5.316 -0.1061  0.2252 -0.0220
 1120PNCE   AM210085  14.183   3.753   5.343 -0.1139 -0.1910  0.2813
 1120PNCE   T1A10086  14.265   3.178   5.736  0.0656 -0.0245 -0.0831
 1120PNCE   C2A10087  14.070   3.007   6.066 -0.0507 -0.2100 -0.3578
 1120PNCE   C3A10088  14.178   2.668   6.279  0.0941 -0.0145  0.0881
 1120PNCE   C1B10089  14.528   3.744   5.634 -0.0161  0.0473  0.1163
 1120PNCE   C2B10090  14.583   3.725   6.113  0.2397  0.0943  0.1275
 1120PNCE   C3B10091  14.314   3.745   6.426 -0.0501 -0.1198  0.0309
 1120PNCE   D4B10092  14.010   3.588   6.752 -0.0007  0.0097  0.1286
 1120PNCE   C5B10093  13.844   3.186   6.716 -0.2056  0.0614 -0.1148
 1120PNCE   C6B10094  13.739   2.918   6.418 -0.4862 -0.0077 -0.0361
 1121PNCE   AM110095   5.111   8.010   5.454  0.0600 -0.2004  0.3133
 1121PNCE   AM210096   4.994   7.672   5.609  0.0480 -0.0442 -0.0407
 1121PNCE   T1A10097   5.515   7.905   5.509  0.0087  0.2205 -0.2888
 1121PNCE   C2A10098   5.704   7.600   5.759  0.0786  0.0051 -0.1923
 1121PNCE   C3A10099   5.867   7.651   6.135  0.3075  0.0313 -0.3614
 1121PNCE   C1B10100   5.290   7.390   5.617 -0.1033 -0.0123  0.1622
 1121PNCE   C2B10101   5.411   7.194   6.035  0.1293  0.0899 -0.1397
 1121PNCE   C3B10102   5.352   7.380   6.488 -0.0767  0.1847 -0.1717
 1121PNCE   D4B10103   5.184   7.623   6.734 -0.0533 -0.2582  0.0296
 1121PNCE   C5B10104   5.447   7.891   7.113  0.2825 -0.0786 -0.2309
 1121PNCE   C6B10105   5.494   7.809   7.570  0.0505 -0.3106 -0.1469
 1122CHOL   ROH10106   7.933   0.165   7.693 -0.1675 -0.1482 -0.0784
 1122CHOL    R110107   8.036   0.060   7.451 -0.0675 -0.0667 -0.0716
 1122CHOL    R210108   8.159   0.218   7.261  0.0517 -0.0098  0.0526
 1122CHOL    R310109   8.362   0.039   7.289  0.0083 -0.0552  0.0768
 1122CHOL    R410110   8.418   0.176   7.036  0.0828 -0.0446  0.0952
 1122CHOL    R510111   8.403  -0.040   7.067  0.0312 -0.0459  0.0762
 1122CHOL    C110112   8.760  -0.017   6.932  0.0603 -0.1075  0.1427
 1122CHOL    C210113   8.911  -0.263   6.775  0.3371  0.1511 -0.0573
 1123CHOL   ROH10114   1.662  15.677   5.129  0.0670 -0.0245  0.1330
 1123CHOL    R110115   1.676  15.586   5.397 -0.1348 -0.0819  0.1258
 1123CHOL    R210116   1.658  15.756   5.613  0.0360 -0.0829  0.1435
 1123CHOL    R310117   1.459  15.587   5.688 -0.2210  0.1768  0.0628
 1123CHOL    R410118   1.556  15.706   5.939  0.0478 -0.1768  0.1329
 1123CHOL    R510119   1.536  15.493   5.895 -0.3119 -0.1161 -0.0329
 1123CHOL    C110120   1.309  15.518   6.200 -0.1867  0.0124  0.0509
 1123CHOL    C210121   1.380  15.634   6.627 -0.1228 -0.0310 -0.0830
 1124XCA    COO10122   2.650   8.846   9.811 -0.0109  0.3369 -0.0686
 1124XCA     C110123   2.836   8.485   9.452  0.0954 -0.0589  0.0496
 1124XCA     C210124   3.117   8.275   9.323  0.3239 -0.1749  0.1340
 1124XCA     C310125   3.075   8.148   8.963  0.0506  0.1948 -0.1675
 1124XCA     C410126   3.066   7.913   8.552  0.1834  0.0019 -0.0150
 1124XCA     C510127   3.375   8.001   8.151  0.0957  0.0074  0.0444
 1124XCA     C610128   3.614   7.730   7.869  0.1792  0.1630  0.0269
 1125CHOL   ROH10129   3.741   6.070   9.536  0.3187  0.1017  0.0947
 1125CHOL    R110130   3.824   5.981   9.281  0.1547  0.1198  0.0332
 1125CHOL    R210131   3.950   6.147   9.099  0.1558  0.1005  0.0139
 1125CHOL    R310132   4.139   5.952   9.101  0.0578  0.0024 -0.1192
 1125CHOL    R410133   4.238   6.149   8.908  0.0425 -0.0344 -0.1607
 1125CHOL    R510134   4.210   5.936   8.873 -0.0884 -0.0164 -0.1633
 1125CHOL    C110135   4.583   5.967   8.798 -0.1154 -0.2050 -0.3875
 1125CHOL    C210136   4.958   5.838   8.831  0.0176 -0.0448  0.2840
 1126PNCE   AM110137   0.187  14.292   4.429  0.2838  0.0304  0.0232
 1126PNCE   AM210138   0.487  14.496   4.176 -0.1442 -0.0800 -0.1375
 1126PNCE   T1A10139  -0.037  14.368   4.814  0.0909 -0.0790 -0.0585
 1126PNCE   C2A10140  -0.245  14.469   5.181  0.2136 -0.1426 -0.2634
 1126PNCE   C3A10141  -0.581  14.385   5.506  0.0235  0.0940  0.2300
 1126PNCE   C1B10142   0.666  14.597   4.524  0.2449 -0.0065  0.1845
 1126PNCE   C2B10143   0.772  14.984   4.776  0.2535  0.2815 -0.2725
 1126PNCE   C3B10144   0.849  15.106   5.055  0.4085 -0.2406  0.0492
 1126PNCE   D4B10145   0.825  15.077   5.556 -0.2050  0.0414 -0.1123
 1126PNCE   C5B10146   1.105  14.728   5.656  0.0496 -0.1715 -0.0591
 1126PNCE   C6B10147   1.335  14.385   5.737  0.2876 -0.0854 -0.1007
 1127CHOL   ROH10148   0.050  10.509   6.197 -0.0799 -0.0693  0.0857
 1127CHOL    R110149   0.045  10.775   6.294  0.1339 -0.0746  0.1201
 1127CHOL    R210150  -0.184  10.892   6.396  0.1211  0.2250 -0.2180
 1127CHOL    R310151  -0.025  10.939   6.611 -0.1414 -0.0413  0.0423
 1127CHOL    R410152  -0.201  11.173   6.596  0.1002  0.1242 -0.0785
 1127CHOL    R510153   0.016  11.175   6.604  0.0905 -0.0774  0.2380
 1127CHOL    C110154  -0.062  11.381   6.915 -0.1582 -0.1843  0.2471
 1127CHOL    C210155   0.267  11.609   7.024 -0.1685  0.3758 -0.0170
 1128PNCE   AM110156   1.710   0.263   5.096 -0.1852 -0.0300  0.2501
 1128PNCE   AM210157   1.954   0.389   4.921 -0.0023 -0.4216 -0.0126
 1128PNCE   T1A10158   1.570   0.416   5.526 -0.0581  0.1926 -0.0358
 1128PNCE   C2A10159   1.437   0.631   5.895 -0.1184  0.1056 -0.2793
 1128PNCE   C3A10160   1.466   0.999   6.176 -0.0381 -0.4332 -0.1033
 1128PNCE   C1B10161   2.105   0.527   5.342 -0.0278 -0.5751  0.2760
 1128PNCE   C2B10162   2.019   0.432   5.795 -0.0460 -0.3080 -0.0660
 1128PNCE   C3B10163   2.323   0.383   6.120 -0.1628  0.0567  0.0262
 1128PNCE   D4B10164   2.378   0.009   6.361 -0.0186  0.1599 -0.0733
 1128PNCE   C5B10165   2.223  -0.264   6.748 -0.0781  0.1704  0.1039
 1128PNCE   C6B10166   2.282  -0.702   6.914 -0.0109  0.1469 -0.3265
 1129CHOL   ROH10167  11.238  11.524   7.163 -0.1508  0.3324 -0.0740
 1129CHOL    R110168  11.048  11.507   6.954  0.0165  0.0460 -0.2082
 1129CHOL    R210169  11.033  11.290   6.784  0.1189 -0.2172  0.1094
 1129CHOL    R310170  10.773  11.287   6.863  0.0521 -0.0459 -0.0951
 1129CHOL    R410171  10.791  11.078   6.658  0.2226 -0.4883  0.3538
 1129CHOL    R510172  10.650  11.244   6.661  0.2169 -0.4718 -0.1149
 1129CHOL    C110173  10.406  10.952   6.658  0.2203 -0.4852  0.3041
 1129CHOL    C210174  10.553  10.729   6.423 -0.0081  0.1152  0.0429
 1130PNCE   AM110175  10.800   4.228   5.166 -0.0425 -0.2897  0.1386
 1130PNCE   AM210176  10.944   4.545   5.034 -0.3090 -0.1537  0.0163
 1130PNCE   T1A10177  11.008   4.184   5.500  0.0407  0.0746  0.1958
 1130PNCE   C2A10178  11.116   4.166   5.963 -0.3507 -0.1790 -0.2947
 1130PNCE   C3A10179  11.410   4.599   6.056  0.2769  0.1573 -0.2142
 1130PNCE   C1B10180  10.523   4.596   5.268  0.1679  0.1499 -0.1546
 1130PNCE   C2B10181  10.465   4.778   5.612  0.0275 -0.2079  0.1379
 1130PNCE   C3B10182  10.200   5.043   5.803  0.0414 -0.1390  0.0373
 1130PNCE   D4B10183   9.757   5.114   5.888 -0.0471  0.0953 -0.0136
 1130PNCE   C5B10184   9.452   5.349   6.149  0.1376 -0.0208 -0.0297
 1130PNCE   C6B10185   9.342   5.542   6.461 -0.2093  0.2112 -0.0345
 1131PNCE   AM110186  15.005   5.845   5.023  0.1174 -0.1215  0.1024
 1131PNCE   AM210187  14.756   5.662   4.911 -0.2217  0.0372 -0.0759
 1131PNCE   T1A10188  14.854   5.890   5.402  0.0324  0.1406  0.0114
 1131PNCE   C2A10189  14.738   6.006   5.759 -0.2909 -0.0678  0.2036
 1131PNCE   C3A10190  14.726   6.229   6.172  0.1293  0.2381 -0.0352
 1131PNCE   C1B10191  14.529   5.552   5.293 -0.0345 -0.3804 -0.2237
 1131PNCE   C2B10192  14.617   5.525   5.705  0.2414 -0.0474 -0.0613
 1131PNCE   C3B10193  14.731   5.675   6.126 -0.1804  0.0382 -0.4955
 1131PNCE   D4B10194  15.010   5.784   6.355 -0.0861  0.3495  0.0373
 1131PNCE   C5B10195  14.950   5.761   6.807  0.0493  0.0650 -0.3157
 1131PNCE   C6B10196  15.024   6.023   7.007  0.0082  0.0923 -0.2894
 1132PNCE   AM110197   2.126   8.506   5.521  0.0468 -0.2036 -0.1213
 1132PNCE   AM210198   1.915   8.322   5.668  0.0791 -0.1222 -0.0915
 1132PNCE   T1A10199   2.509   8.614   5.799  0.1295  0.2499 -0.2904
 1132PNCE   C2A10200   2.853   8.762   6.081 -0.1995  0.1485 -0.1677
 1132PNCE   C3A10201   2.822   8.861   6.592 -0.1362  0.0259  0.0994
 1132PNCE   C1B10202   1.959   8.472   6.020  0.2252  0.2233  0.0622
 1132PNCE   C2B10203   2.319   8.794   6.255  0.0023  0.1616  0.1763
 1132PNCE   C3B10204   2.305   8.923   6.677 -0.0857 -0.0900 -0.1189
 1132PNCE   D4B10205   2.090   8.829   7.089 -0.0894 -0.0125  0.0315
 1132PNCE   C5B10206   2.008   8.439   7.179 -0.0299 -0.0020  0.0079
 1132PNCE   C6B10207   1.965   8.241   7.488 -0.2673  0.1771  0.0229
 1133PNCE   AM110208   6.941   7.945   4.997 -0.0163 -0.3425 -0.1085
 1133PNCE   AM210209   7.091   8.266   4.949  0.2510  0.0809 -0.0188
 1133PNCE   T1A10210   6.946   7.705   5.400  0.0784 -0.1379 -0.2414
 1133PNCE   C2A10211   6.710   7.498   5.605 -0.0576 -0.2173  0.0873
 1133PNCE   C3A10212   6.727   7.202   5.922  0.2218 -0.2383  0.0099
 1133PNCE   C1B10213   7.025   8.260   5.428  0.2788 -0.1500 -0.2561
 1133PNCE   C2B10214   7.116   8.405   5.719 -0.2258  0.3088  0.5466
 1133PNCE   C3B10215   6.948   8.393   6.129 -0.0488  0.0680 -0.0941
 1133PNCE   D4B10216   6.632   8.598   6.370 -0.1641 -0.0473  0.0108
 1133PNCE   C5B10217   6.426   8.306   6.623  0.1287  0.0519 -0.1480
 1133PNCE   C6B10218   6.247   8.102   6.878 -0.2245  0.1331 -0.0613
 1134PNCE   AM110219   8.858  13.497   4.527 -0.0006 -0.2648 -0.3622
 1134PNCE   AM210220   8.619  13.183   4.516 -0.3481  0.2281  0.3558
 1134PNCE   T1A10221   9.222  13.621   4.799  0.0251 -0.0594  0.1758
 1134PNCE   C2A10222   9.541  13.955   4.737  0.3825 -0.1173  0.1905
 1134PNCE   C3A10223   9.882  14.212   4.668 -0.1092 -0.0686 -0.0577
 1134PNCE   C1B10224   8.921  13.104   4.885  0.2436 -0.1307  0.0878
 1134PNCE   C2B10225   9.000  12.735   5.003  0.0535  0.2967  0.0370
 1134PNCE   C3B10226   8.888  12.454   5.326 -0.0452 -0.1703  0.0055
 1134PNCE   D4B10227   8.548  12.443   5.567 -0.0103 -0.2202 -0.4206
 1134PNCE   C5B10228   8.306  12.654   5.501 -0.2690 -0.0795 -0.1150
 1134PNCE   C6B10229   8.196  13.003   5.426 -0.2650  0.1542  0.0110
 1135CHOL   ROH10230   6.345   3.321   7.950  0.1773  0.0791 -0.0140
 1135CHOL    R110231   6.237   3.116   7.787  0.1229  0.0466  0.0609
 1135CHOL    R210232   5.973   3.117   7.702  0.0916  0.0339  0.1383
 1135CHOL    R310233   6.087   3.093   7.456  0.0224 -0.0150  0.1121
 1135CHOL    R410234   5.802   3.047   7.410  0.0125  0.0350  0.1850
 1135CHOL    R510235   5.966   2.916   7.351 -0.0327  0.0013  0.1585
 1135CHOL    C110236   5.810   2.983   7.009 -0.0985 -0.0103  0.1875
 1135CHOL    C210237   5.906   2.671   6.862 -0.1266  0.2421 -0.1916
 1136PNCE   AM110238  12.352  13.189   7.589  0.3454  0.2817 -0.1249
 1136PNCE   AM210239  12.277  13.472   7.461  0.4511  0.1995  0.1754
 1136PNCE   T1A10240  12.541  12.924   7.237 -0.2753  0.0302 -0.0329
 1136PNCE   C2A10241  12.436  12.928   6.730 -0.1153 -0.3195  0.0164
 1136PNCE   C3A10242  12.420  13.107   6.261 -0.0127  0.1122  0.0035
 1136PNCE   C1B10243  12.298  13.340   7.004 -0.1620 -0.2124 -0.1223
 1136PNCE   C2B10244  12.161  13.388   6.595  0.0387  0.1009  0.0449
 1136PNCE   C3B10245  11.957  13.140   6.464  0.0351 -0.1597 -0.1395
 1136PNCE   D4B10246  12.115  12.618   6.224  0.1420 -0.2541 -0.1254
 1136PNCE   C5B10247  12.472  12.535   6.436  0.6963 -0.1317 -0.2880
 1136PNCE   C6B10248  12.817  12.458   6.269  0.0708  0.2549 -0.2904
 1137CHOL   ROH10249   6.623   2.510   8.295 -0.1417  0.0629  0.0488
 1137CHOL    R110250   6.612   2.528   8.013 -0.0146 -0.0217  0.0379
 1137CHOL    R210251   6.405   2.420   7.865  0.0203 -0.0076 -0.0156
 1137CHOL    R310252   6.387   2.673   7.766  0.1334 -0.0337 -0.1073
 1137CHOL    R410253   6.388   2.500   7.529 -0.1612 -0.1437 -0.0404
 1137CHOL    R510254   6.521   2.669   7.567 -0.0073 -0.2190 -0.2047
 1137CHOL    C110255   6.360   2.784   7.241 -0.1607 -0.2474 -0.1409
 1137CHOL    C210256   6.488   2.658   6.927  0.0598 -0.2780  0.0773
 1138PNCE   AM110257   3.256   8.077   5.688  0.3400 -0.2984 -0.0132
 1138PNCE   AM210258   3.548   8.139   5.641  0.1799  0.0604  0.0781
 1138PNCE   T1A10259   3.234   7.797   6.132 -0.1991 -0.0549 -0.0032
 1138PNCE   C2A10260   3.124   7.608   6.574 -0.0827 -0.0160 -0.3574
 1138PNCE   C3A10261   3.033   7.342   7.002 -0.1710  0.1609 -0.1700
 1138PNCE   C1B10262   3.505   8.240   6.082 -0.0068  0.1114  0.3233
 1138PNCE   C2B10263   3.525   7.960   6.517 -0.0959 -0.0464  0.1233
 1138PNCE   C3B10264   3.481   7.931   6.889  0.0266 -0.3188 -0.0166
 1138PNCE   D4B10265   3.303   7.799   7.386 -0.1009  0.2049 -0.0429
 1138PNCE   C5B10266   3.331   7.405   7.604  0.3265 -0.1149  0.2060
 1138PNCE   C6B10267   3.552   7.149   7.773 -0.2014  0.1971 -0.0804
 1139PNCE   AM110268   4.218  15.602   4.626 -0.1198  0.0505  0.2239
 1139PNCE   AM210269   4.222  15.179   4.635 -0.0042  0.0004 -0.1698
 1139PNCE   T1A10270   4.369  15.470   5.056 -0.5391 -0.4050 -0.1946
 1139PNCE   C2A10271   4.400  15.531   5.461 -0.1998 -0.4368  0.0423
 1139PNCE   C3A10272   4.507  15.564   5.882  0.0447  0.1239  0.1443
 1139PNCE   C1B10273   3.906  15.321   4.891  0.0478  0.2521 -0.2475
 1139PNCE   C2B10274   3.793  15.471   5.145  0.1351  0.2758 -0.1276
 1139PNCE   C3B10275   3.910  15.690   5.442  0.0577  0.0723  0.0318
 1139PNCE   D4B10276   3.809  15.787   5.906  0.0257  0.4121  0.4237
 1139PNCE   C5B10277   3.713  16.092   6.161  0.3096 -0.5186  0.0683
 1139PNCE   C6B10278   3.400  16.453   6.084 -0.3318 -0.1769  0.3952
 1140XCA    COO10279   1.605   3.265   5.078  0.0780 -0.1261 -0.2352
 1140XCA     C110280   1.780   3.271   5.456 -0.2110 -0.0665 -0.2220
 1140XCA     C210281   1.632   3.211   5.891 -0.0992 -0.0257  0.2487
 1140XCA     C310282   1.957   3.279   6.210 -0.0882  0.0411 -0.1442
 1140XCA     C410283   2.035   3.542   6.606 -0.0651 -0.1555  0.2081
 1140XCA     C510284   2.267   3.887   6.863  0.0548  0.2717 -0.0805
 1140XCA     C610285   2.498   4.218   7.129 -0.0181  0.0113  0.0559
 1141CHOL   ROH10286   5.274   8.697   9.422  0.0297 -0.2848 -0.0546
 1141CHOL    R110287   5.269   8.840   9.177 -0.1790 -0.2039 -0.0051
 1141CHOL    R210288   5.466   8.813   8.986 -0.1844  0.0851 -0.0526
 1141CHOL    R310289   5.255   8.757   8.823 -0.1536 -0.0966 -0.0324
 1141CHOL    R410290   5.490   8.746   8.647 -0.1678  0.2807 -0.0913
 1141CHOL    R510291   5.309   8.865   8.616 -0.3270  0.0767  0.0070
 1141CHOL    C110292   5.306   8.655   8.298 -0.1292  0.2239 -0.0948
 1141CHOL    C210293   5.482   8.559   7.901 -0.3144 -0.0018  0.2668
 1142PNCE   AM110294   7.223  14.368   5.888 -0.2298  0.4763 -0.0231
 1142PNCE   AM210295   6.835  14.336   5.921 -0.2943 -0.3068  0.1668
 1142PNCE   T1A10296   7.526  14.151   6.139 -0.0576  0.0145  0.3326
 1142PNCE   C2A10297   7.812  14.089   6.373  0.0411 -0.0458  0.1487
 1142PNCE   C3A10298   7.788  13.779   6.705  0.1001  0.0497  0.2441
 1142PNCE   C1B10299   7.082  14.253   6.382 -0.3673  0.0156  0.2598
 1142PNCE   C2B10300   7.179  13.774   6.607 -0.0361 -0.2269  0.1366
 1142PNCE   C3B10301   7.341  13.659   6.955  0.0638  0.2603 -0.0045
 1142PNCE   D4B10302   7.536  13.699   7.400  0.1292 -0.2436  0.0130
 1142PNCE   C5B10303   7.381  13.749   7.777  0.0916  0.0948 -0.1004
 1142PNCE   C6B10304   7.075  13.801   8.020  0.1705  0.1082 -0.0317
 1143PNCE   AM110305  13.258   2.412   4.987  0.0776  0.1626  0.1491
 1143PNCE   AM210306  13.320   2.578   5.170 -0.2124 -0.1719 -0.2652
 1143PNCE   T1A10307  13.004   2.083   5.194  0.0114  0.1376  0.1824
 1143PNCE   C2A10308  12.997   1.667   5.298 -0.0028 -0.0965  0.2150
 1143PNCE   C3A10309  12.922   1.330   5.074 -0.1678  0.2664 -0.2569
 1143PNCE   C1B10310  13.347   2.544   5.612 -0.0694  0.0895  0.1714
 1143PNCE   C2B10311  13.209   2.838   5.928  0.1359 -0.1837 -0.2097
 1143PNCE   C3B10312  13.262   3.105   6.373 -0.2482  0.0363 -0.0082
 1143PNCE   D4B10313  13.397   3.266   6.849  0.1934 -0.0250 -0.2059
 1143PNCE   C5B10314  13.616   3.572   7.118  0.0419 -0.1732  0.2006
 1143PNCE   C6B10315  13.510   3.696   7.461 -0.2712  0.0240 -0.2089
 1144CHOL   ROH10316   7.417  10.795   5.417  0.0716 -0.1475 -0.0455
 1144CHOL    R110317   7.394  10.855   5.693  0.0354 -0.0491 -0.0687
 1144CHOL    R210318   7.170  10.977   5.800 -0.0272 -0.1028 -0.1221
 1144CHOL    R310319   7.173  10.761   5.967  0.0654 -0.0417 -0.0446
 1144CHOL    R410320   6.993  10.954   6.096 -0.1821 -0.1678 -0.2190
 1144CHOL    R510321   7.166  10.856   6.187 -0.1529  0.0221 -0.0820
 1144CHOL    C110322   6.893  10.739   6.425 -0.1853 -0.1482 -0.2027
 1144CHOL    C210323   6.730  10.670   6.752  0.1752  0.3745  0.0691
 1145CHOL   ROH10324   4.264  14.423   7.197 -0.0201 -0.1515 -0.1600
 1145CHOL    R110325   4.373  14.236   7.379 -0.0393  0.0101  0.0204
 1145CHOL    R210326   4.538  14.030   7.299 -0.2145 -0.1989  0.1885
 1145CHOL    R310327   4.705  14.134   7.487 -0.0430 -0.0628 -0.0347
 1145CHOL    R410328   4.787  13.853   7.463 -0.1756 -0.1279  0.2066
 1145CHOL    R510329   4.733  13.958   7.647 -0.0086  0.0929  0.1365
 1145CHOL    C110330   5.088  13.849   7.734  0.0081  0.0411  0.0076
 1145CHOL    C210331   5.195  13.695   8.070 -0.1155  0.2712 -0.0705
 1146PNCE   AM110332  11.388   1.301   4.626  0.1927  0.3329  0.1240
 1146PNCE   AM210333  11.643   1.249   4.892  0.1097  0.0307  0.1224
 1146PNCE   T1A10334  10.987   1.110   4.809  0.2102 -0.4268 -0.1349
 1146PNCE   C2A10335  10.689   0.921   4.964 -0.1246  0.3226  0.4184
 1146PNCE   C3A10336  10.479   0.806   5.282 -0.2339  0.1944 -0.0479
 1146PNCE   C1B10337  11.367   1.101   5.228  0.1525  0.0454 -0.0756
 1146PNCE   C2B10338  11.172   1.265   5.653 -0.4601 -0.1064 -0.1087
 1146PNCE   C3B10339  11.165   1.326   6.064  0.0212  0.1038 -0.2935
 1146PNCE   D4B10340  10.982   1.294   6.512 -0.1698  0.2217 -0.0051
 1146PNCE   C5B10341  11.159   1.081   6.777 -0.3253  0.2161  0.0316
 1146PNCE   C6B10342  10.982   0.801   7.056  0.0086 -0.1712 -0.2281
 1147CHOL   ROH10343  13.795  15.554   4.687 -0.0134 -0.4250 -0.1229
 1147CHOL    R110344  13.892  15.344   4.851  0.2790 -0.1949  0.0087
 1147CHOL    R210345  14.115  15.372   5.011  0.0375  0.3378  0.2857
 1147CHOL    R310346  13.945  15.289   5.206 -0.0247 -0.0353  0.0805
 1147CHOL    R410347  14.213  15.259   5.323 -0.0906  0.2838  0.3059
 1147CHOL    R510348  14.059  15.105   5.309  0.1455  0.0659  0.0675
 1147CHOL    C110349  14.110  15.114   5.687 -0.2234 -0.0978  0.1250
 1147CHOL    C210350  14.442  15.136   5.862  0.0721  0.1153 -0.1822
 1148CHOL   ROH10351   8.165  11.988   8.362  0.1542  0.1267  0.2345
 1148CHOL    R110352   8.357  12.063   8.167  0.0331  0.0821  0.0966
 1148CHOL    R210353   8.494  11.878   8.014 -0.0226  0.0429  0.0921
 1148CHOL    R310354   8.397  12.025   7.807 -0.1650 -0.0536  0.0878
 1148CHOL    R410355   8.603  11.854   7.687  0.0206  0.1709  0.0958
 1148CHOL    R510356   8.589  12.071   7.672 -0.2076  0.1557  0.0997
 1148CHOL    C110357   8.575  11.979   7.302 -0.0882  0.1548  0.0940
 1148CHOL    C210358   8.528  11.905   6.948  0.3311 -0.1894 -0.2652
 1149XCA    COO10359   2.625  12.456   4.058 -0.1572 -0.2431  0.0530
 1149XCA     C110360   2.702  12.656   4.461  0.4197 -0.0779 -0.1485
 1149XCA     C210361   2.661  12.946   4.780  0.2208 -0.0268 -0.1018
 1149XCA     C310362   2.516  13.187   5.144  0.1860 -0.2048  0.0704
 1149XCA     C410363   2.453  13.279   5.607 -0.0407 -0.0929  0.0888
 1149XCA     C510364   2.306  13.362   5.985  0.3619  0.1646  0.0807
 1149XCA     C610365   1.980  13.669   6.234  0.3221 -0.0088 -0.0854
 1150PNCE   AM110366   2.563   9.256   5.401 -0.0769 -0.1513 -0.0384
 1150PNCE   AM210367   2.911   9.363   5.256  0.1853  0.0130 -0.1338
 1150PNCE   T1A10368   2.553   9.109   5.862  0.0210  0.3778 -0.0159
 1150PNCE   C2A10369   2.406   9.263   6.280  0.1834  0.0664  0.2215
 1150PNCE   C3A10370   2.572   9.341   6.721 -0.0980  0.1218 -0.1204
 1150PNCE   C1B10371   2.989   9.307   5.681  0.0184  0.1927  0.1474
 1150PNCE   C2B10372   2.985   9.296   6.168  0.0106 -0.1982  0.1724
 1150PNCE   C3B10373   3.128   9.424   6.640 -0.2786 -0.0914 -0.0294
 1150PNCE   D4B10374   2.922   9.449   7.019 -0.0631 -0.1125 -0.2401
 1150PNCE   C5B10375   2.973   9.237   7.405 -0.0723 -0.2533 -0.2638
 1150PNCE   C6B10376   3.250   9.125   7.734 -0.4332 -0.0828 -0.0744
 1151XCA    COO10377  11.372   4.384   5.216  0.0448  0.1196 -0.2677
 1151XCA     C110378  11.506   4.117   5.617 -0.0569 -0.1390  0.2053
 1151XCA     C210379  11.578   3.981   5.985 -0.0770 -0.0089  0.0324
 1151XCA     C310380  11.589   3.718   6.327 -0.0491  0.0865  0.0199
 1151XCA     C410381  11.679   3.460   6.745  0.1326 -0.3348 -0.0270
 1151XCA     C510382  11.984   3.313   7.094  0.2470  0.1246 -0.2077
 1151XCA     C610383  12.165   3.304   7.513 -0.0343  0.2231  0.4733
 1152CHOL   ROH10384  11.315  14.236   4.131  0.0442 -0.0141  0.1833
 1152CHOL    R110385  11.332  14.440   4.326 -0.1500  0.0743  0.1103
 1152CHOL    R210386  11.119  14.508   4.489 -0.1706 -0.1784  0.1950
 1152CHOL    R310387  11.300  14.465   4.687 -0.0032  0.1391  0.1195
 1152CHOL    R410388  11.088  14.624   4.813 -0.2431 -0.2382  0.2093
 1152CHOL    R510389  11.301  14.669   4.812 -0.3171  0.1454  0.1203
 1152CHOL    C110390  11.239  14.650   5.188 -0.1281  0.0252  0.1468
 1152CHOL    C210391  11.184  14.859   5.526 -0.1314 -0.1760 -0.1716
 1153PNCE   AM110392   2.202   7.777   5.560 -0.4175  0.0908 -0.2103
 1153PNCE   AM210393   2.396   8.075   5.727 -0.2313  0.0162  0.0177
 1153PNCE   T1A10394   2.292   7.543   5.936 -0.1626 -0.1059 -0.2401
 1153PNCE   C2A10395   2.171   7.356   6.462 -0.0995  0.3098  0.1074
 1153PNCE   C3A10396   2.057   7.347   6.889  0.2787  0.0785  0.1987
 1153PNCE   C1B10397   2.428   8.031   6.212  0.1026  0.2724  0.2045
 1153PNCE   C2B10398   2.323   7.917   6.636  0.0747 -0.0277  0.1055
 1153PNCE   C3B10399   2.239   7.962   7.091 -0.1212 -0.1384  0.3343
 1153PNCE   D4B10400   2.159   7.588   7.484  0.0411  0.0341 -0.0513
 1153PNCE   C5B10401   2.335   7.135   7.548  0.1052  0.1706 -0.2170
 1153PNCE   C6B10402   2.072   6.699   7.718 -0.1674  0.4057  0.0963
 1154XCA    COO10403  11.126  10.970   8.138  0.0862  0.0241  0.1642
 1154XCA     C110404  11.050  10.649   7.808  0.2432  0.1705 -0.0042
 1154XCA     C210405  10.963  10.617   7.343 -0.3354  0.1218  0.0748
 1154XCA     C310406  10.819  10.476   6.958  0.0550 -0.0455  0.1638
 1154XCA     C410407  10.585  10.209   6.651 -0.0917 -0.2493  0.4531
 1154XCA     C510408  10.492   9.997   6.238 -0.1040  0.0633 -0.2625
 1154XCA     C610409  10.227   9.662   6.006  0.2329 -0.3248 -0.1123
 1155CHOL   ROH10410   5.627   7.408   9.027  0.2708 -0.0597 -0.0629
 1155CHOL    R110411   5.422   7.421   8.833  0.0362 -0.1259  0.1758
 1155CHOL    R210412   5.474   7.437   8.562 -0.2774  0.2592  0.1333
 1155CHOL    R310413   5.311   7.220   8.551  0.0145  0.0366  0.0647
 1155CHOL    R410414   5.369   7.284   8.270 -0.4334  0.5064  0.0565
 1155CHOL    R510415   5.171   7.260   8.360 -0.2947  0.1063  0.2932
 1155CHOL    C110416   5.154   6.991   8.090 -0.2503  0.4414 -0.0527
 1155CHOL    C210417   4.874   7.098   7.764  0.1260  0.1676 -0.0608
 1156CHOL   ROH10418  10.603   8.744   6.774 -0.0636  0.0795 -0.0050
 1156CHOL    R110419  10.680   8.844   6.521 -0.2200  0.0738 -0.0557
 1156CHOL    R210420  10.536   9.039   6.388 -0.1232  0.3113  0.1818
 1156CHOL    R310421  10.776   9.167   6.383  0.0410  0.0051 -0.0401
 1156CHOL    R410422  10.606   9.321   6.201 -0.0546  0.4380  0.3947
 1156CHOL    R510423  10.801   9.237   6.155 -0.2269  0.2294 -0.0067
 1156CHOL    C110424  10.871   9.605   6.087  0.1394  0.2244  0.3103
 1156CHOL    C210425  10.893   9.827   5.852 -0.0110 -0.0144  0.1624
 1157CHOL   ROH10426   2.724   1.526   5.868 -0.0735  0.1892 -0.1686
 1157CHOL    R110427   2.906   1.729   5.943 -0.0812  0.1631 -0.0794
 1157CHOL    R210428   2.829   1.992   5.977 -0.0972  0.1375  0.0695
 1157CHOL    R310429   2.944   1.960   6.221 -0.0673  0.0186  0.0408
 1157CHOL    R410430   3.017   2.232   6.140 -0.1913  0.1125  0.2172
 1157CHOL    R510431   3.154   2.074   6.204 -0.1164  0.1241  0.1006
 1157CHOL    C110432   3.235   2.341   6.465 -0.2180 -0.0137  0.2763
 1157CHOL    C210433   3.557   2.566   6.671 -0.1775  0.0965 -0.2616
 1158PNCE   AM110434   9.648   1.870   4.774  0.0065  0.1326  0.0065
 1158PNCE   AM210435   9.952   1.949   4.797  0.1381 -0.0731  0.4604
 1158PNCE   T1A10436   9.451   1.842   5.177 -0.0447 -0.0563  0.1316
 1158PNCE   C2A10437   9.284   1.833   5.596 -0.4309 -0.0342  0.2628
 1158PNCE   C3A10438   9.186   1.969   5.931  0.1557 -0.1225 -0.1612
 1158PNCE   C1B10439   9.973   1.610   5.000  0.2427 -0.3684  0.3399
 1158PNCE   C2B10440   9.796   1.540   5.398  0.0674  0.2060  0.1282
 1158PNCE   C3B10441  10.158   1.402   5.688  0.2044 -0.1352  0.0996
 1158PNCE   D4B10442  10.497   1.117   5.710 -0.0391 -0.1869 -0.1418
 1158PNCE   C5B10443  10.755   1.011   5.984 -0.2715 -0.0618  0.0335
 1158PNCE   C6B10444  10.578   0.985   6.404  0.0354  0.0870 -0.0556
 1159CHOL   ROH10445  14.269   4.793   4.880 -0.1544 -0.0773  0.0267
 1159CHOL    R110446  14.338   4.982   5.080 -0.1681  0.0891 -0.1216
 1159CHOL    R210447  14.149   5.138   5.208 -0.2174 -0.0260 -0.0401
 1159CHOL    R310448  14.262   5.033   5.432  0.0721  0.1844 -0.0836
 1159CHOL    R410449  14.123   5.274   5.525 -0.3206 -0.0638 -0.0328
 1159CHOL    R510450  14.333   5.223   5.558 -0.2149  0.3155 -0.1213
 1159CHOL    C110451  14.215   5.254   5.919 -0.1088  0.1117 -0.0693
 1159CHOL    C210452  14.235   5.442   6.171  0.0907 -0.3077 -0.2894
 1160XCA    COO10453  12.311   3.127   8.472 -0.0411  0.1412 -0.0761
 1160XCA     C110454  12.759   3.065   8.268 -0.2831  0.0335 -0.2073
 1160XCA     C210455  13.123   3.095   8.049 -0.0785  0.4053  0.0676
 1160XCA     C310456  13.491   2.919   7.845  0.3630 -0.1101  0.0487
 1160XCA     C410457  13.590   2.600   7.501  0.0361 -0.0174 -0.2371
 1160XCA     C510458  13.634   2.339   7.080 -0.0587  0.2669  0.0689
 1160XCA     C610459  14.091   2.198   6.864  0.3504 -0.0191  0.2145
 1161CHOL   ROH10460  14.224   1.543   8.911 -0.0014  0.2258  0.0422
 1161CHOL    R110461  14.282   1.723   8.701  0.0754  0.1613  0.0102
 1161CHOL    R210462  14.538   1.812   8.647  0.1374 -0.1216 -0.1324
 1161CHOL    R310463  14.483   1.719   8.397 -0.0997 -0.0560 -0.1100
 1161CHOL    R410464  14.616   1.977   8.354  0.1751 -0.1815 -0.1580
 1161CHOL    R510465  14.423   1.914   8.273  0.0498  0.0318 -0.0636
 1161CHOL    C110466  14.610   1.986   7.948 -0.0255 -0.1548 -0.1521
 1161CHOL    C210467  14.624   2.218   7.729 -0.0693  0.1511  0.1222
 1162CHOL   ROH10468   6.362   1.460   4.870 -0.2268  0.0337  0.0502
 1162CHOL    R110469   6.456   1.483   5.136 -0.1442  0.0128  0.0223
 1162CHOL    R210470   6.650   1.666   5.210 -0.0991 -0.0162 -0.0307
 1162CHOL    R310471   6.463   1.741   5.393 -0.0330  0.0033  0.0300
 1162CHOL    R410472   6.712   1.868   5.483  0.0388 -0.1232  0.0186
 1162CHOL    R510473   6.582   1.739   5.601  0.0104 -0.1079  0.0066
 1162CHOL    C110474   6.574   2.056   5.814  0.1811 -0.1672  0.1043
 1162CHOL    C210475   6.530   2.206   6.138  0.0492  0.2832  0.3142
 1163CHOL   ROH10476   9.181  13.826   4.316 -0.1689  0.0671 -0.1105
 1163CHOL    R110477   9.081  14.023   4.493 -0.3134 -0.0160 -0.0970
 1163CHOL    R210478   8.884  13.970   4.679 -0.1473 -0.2212  0.0281
 1163CHOL    R310479   9.067  14.072   4.853 -0.1688  0.0396 -0.0990
 1163CHOL    R410480   8.812  14.089   4.995 -0.1015 -0.2789  0.0602
 1163CHOL    R510481   8.953  14.252   4.961 -0.3359 -0.0972 -0.0480
 1163CHOL    C110482   8.942  14.255   5.342 -0.0949 -0.0676 -0.0404
 1163CHOL    C210483   8.858  14.172   5.748 -0.2728  0.1000 -0.1818
 1164CHOL   ROH10484   4.605   8.336   6.101 -0.0963 -0.1316  0.2025
 1164CHOL    R110485   4.737   8.296   6.348 -0.0471 -0.2303  0.1610
 1164CHOL    R210486   4.936   8.107   6.382  0.0676 -0.1399  0.0060
 1164CHOL    R310487   5.078   8.321   6.473 -0.0477 -0.1199  0.1409
 1164CHOL    R410488   5.188   8.091   6.618  0.1579 -0.1712 -0.0914
 1164CHOL    R510489   5.110   8.275   6.706  0.0604 -0.2971  0.0923
 1164CHOL    C110490   5.467   8.281   6.842  0.1022 -0.1706 -0.0216
 1164CHOL    C210491   5.789   8.187   6.917  0.1412  0.0486 -0.0741
 1165CHOL   ROH10492   6.750  15.143   5.676  0.2037 -0.0503 -0.0498
 1165CHOL    R110493   6.876  15.241   5.910  0.1488 -0.0877 -0.0039
 1165CHOL    R210494   6.936  15.509   5.945  0.1544 -0.0942  0.0476
 1165CHOL    R310495   6.794  15.478   6.174  0.0925 -0.1182  0.0057
 1165CHOL    R410496   6.985  15.692   6.233  0.1303 -0.1799  0.1061
 1165CHOL    R510497   6.955  15.510   6.349  0.0584 -0.2018  0.0523
 1165CHOL    C110498   6.879  15.770   6.617  0.0581 -0.2524  0.1008
 1165CHOL    C210499   7.075  15.716   6.974 -0.0679  0.1559 -0.0370
 1166PNCE   AM110500   0.554   7.584   6.015  0.5154  0.0048 -0.0029
 1166PNCE   AM210501   0.532   7.452   5.630 -0.0419  0.4010  0.0059
 1166PNCE   T1A10502   0.750   7.775   6.384  0.1134 -0.0729 -0.1086
 1166PNCE   C2A10503   0.704   8.051   6.757  0.0233  0.1560  0.2658
 1166PNCE   C3A10504   0.644   8.115   7.159  0.2127 -0.0619  0.0262
 1166PNCE   C1B10505   0.156   7.253   5.780  0.2147  0.0887  0.3398
 1166PNCE   C2B10506   0.208   7.240   6.264 -0.0808 -0.0311  0.0470
 1166PNCE   C3B10507   0.082   7.217   6.761 -0.1763 -0.1040  0.0352
 1166PNCE   D4B10508   0.052   7.256   7.101  0.0548 -0.2525 -0.0644
 1166PNCE   C5B10509   0.467   7.216   7.255  0.0054  0.2616  0.4385
 1166PNCE   C6B10510   0.691   7.001   7.582 -0.0990  0.0516  0.3057
 1167XCA    COO10511   8.429   1.164   4.054  0.0812 -0.1924 -0.1667
 1167XCA     C110512   8.240   1.101   4.453  0.1758  0.2276  0.0404
 1167XCA     C210513   8.209   1.299   4.948  0.1397 -0.1453 -0.0941
 1167XCA     C310514   8.062   1.371   5.392  0.3194  0.1212  0.1362
 1167XCA     C410515   8.331   1.267   5.688 -0.0415 -0.2002  0.1926
 1167XCA     C510516   8.340   1.167   6.100  0.1257 -0.1202 -0.2146
 1167XCA     C610517   8.165   1.122   6.447 -0.1965 -0.0332  0.1146
 1168PNCE   AM110518  11.059  13.559   3.884 -0.2298  0.2731 -0.1846
 1168PNCE   AM210519  11.024  13.803   4.067 -0.2528 -0.0459 -0.1705
 1168PNCE   T1A10520  11.133  13.219   4.144  0.0456 -0.2074 -0.2159
 1168PNCE   C2A10521  10.903  13.008   4.508  0.0541  0.3399 -0.1952
 1168PNCE   C3A10522  10.566  12.792   4.752  0.2305  0.1059  0.1454
 1168PNCE   C1B10523  10.925  13.586   4.425 -0.1543 -0.2076  0.0622
 1168PNCE   C2B10524  10.754  13.737   4.771 -0.0333  0.2557 -0.1395
 1168PNCE   C3B10525  10.555  13.807   5.115  0.0059 -0.0703 -0.1970
 1168PNCE   D4B10526  10.525  13.808   5.624 -0.3120  0.0239 -0.1634
 1168PNCE   C5B10527  10.681  13.473   5.908 -0.1120 -0.1466  0.3619
 1168PNCE   C6B10528  11.066  13.244   6.042 -0.0158 -0.2271  0.1167
 1169PNCE   AM110529   4.362  12.645   5.285  0.0934  0.1243  0.0648
 1169PNCE   AM210530   4.614  12.875   5.149 -0.0998 -0.3034 -0.0019
 1169PNCE   T1A10531   4.130  12.543   5.686  0.0197  0.1063 -0.2369
 1169PNCE   C2A10532   4.066  12.400   6.047  0.0003 -0.1038  0.3933
 1169PNCE   C3A10533   3.858  12.358   6.402 -0.0235  0.3857 -0.1813
 1169PNCE   C1B10534   4.660  12.828   5.646  0.2703  0.1413 -0.1169
 1169PNCE   C2B10535   4.525  12.559   5.998 -0.1930  0.2604 -0.0069
 1169PNCE   C3B10536   4.386  12.430   6.418 -0.0974  0.2388 -0.2463
 1169PNCE   D4B10537   4.188  12.296   6.806 -0.0720  0.1127 -0.0110
 1169PNCE   C5B10538   3.902  12.272   7.248  0.3127 -0.0346 -0.1625
 1169PNCE   C6B10539   3.814  12.503   7.641 -0.2160  0.0780  0.0712
 1170XCA    COO10540  14.920   2.334   5.106  0.3197 -0.3184 -0.0636
 1170XCA     C110541  14.768   2.483   5.495  0.0229 -0.2610 -0.0936
 1170XCA     C210542  14.924   2.415   5.837  0.1583 -0.0399 -0.1248
 1170XCA     C310543  14.925   2.486   6.272 -0.1948  0.1270 -0.1205
 1170XCA     C410544  15.116   2.433   6.652  0.3260  0.2482  0.1007
 1170XCA     C510545  15.067   2.625   7.001  0.0256  0.0295  0.0468
 1170XCA     C610546  14.816   2.491   7.349 -0.1550  0.3319  0.2925
 1171CHOL   ROH10547   3.850  13.272   7.990 -0.1119 -0.2267 -0.2583
 1171CHOL    R110548   3.679  13.426   7.825 -0.1999 -0.1936 -0.1362
 1171CHOL    R210549   3.771  13.567   7.607 -0.2756  0.0545 -0.0071
 1171CHOL    R310550   3.579  13.427   7.476 -0.1778  0.0454 -0.1449
 1171CHOL    R410551   3.689  13.609   7.273 -0.1086  0.1312 -0.0401
 1171CHOL    R510552   3.479  13.587   7.328 -0.1363  0.0684 -0.1529
 1171CHOL    C110553   3.461  13.501   6.956  0.0804  0.1673 -0.1887
 1171CHOL    C210554   3.314  13.700   6.674 -0.2389 -0.0394 -0.2383
 1172CHOL   ROH10555   3.989  11.329   5.305 -0.0267 -0.1835 -0.1689
 1172CHOL    R110556   3.808  11.477   5.464 -0.0661 -0.2511 -0.1504
 1172CHOL    R210557   3.699  11.377   5.698  0.2123 -0.1891  0.0100
 1172CHOL    R310558   3.800  11.606   5.804  0.0530  0.0037 -0.2416
 1172CHOL    R410559   3.565  11.544   5.969  0.3538 -0.2394  0.1118
 1172CHOL    R510560   3.606  11.732   5.867 -0.0385 -0.2281 -0.0427
 1172CHOL    C110561   3.582  11.856   6.228  0.2867 -0.0876 -0.0652
 1172CHOL    C210562   3.431  11.798   6.572 -0.1312 -0.1142 -0.0883
 1173PNCE   AM110563   7.686  10.350   5.289  0.1037  0.0432 -0.0249
 1173PNCE   AM210564   7.398  10.111   5.209  0.1840  0.1714  0.0632
 1173PNCE   T1A10565   7.787  10.091   5.714  0.0148 -0.2690 -0.0047
 1173PNCE   C2A10566   7.876  10.150   6.161 -0.0320 -0.0846  0.0035
 1173PNCE   C3A10567   7.596  10.186   6.534  0.0117  0.0129  0.0908
 1173PNCE   C1B10568   7.299   9.897   5.612 -0.1400  0.3073 -0.3073
 1173PNCE   C2B10569   7.420   9.928   6.095 -0.3099  0.0887 -0.5374
 1173PNCE   C3B10570   7.344   9.761   6.623 -0.1752  0.3398 -0.2164
 1173PNCE   D4B10571   7.275   9.485   6.919 -0.1007 -0.0367  0.0290
 1173PNCE   C5B10572   7.540   9.249   7.259 -0.4796 -0.4024  0.3785
 1173PNCE   C6B10573   7.439   9.043   7.621  0.3599 -0.1305  0.0781
 1174CHOL   ROH10574   9.772   0.630   5.014 -0.0856  0.1652 -0.0524
 1174CHOL    R110575  10.011   0.619   5.165 -0.2004  0.2056  0.1372
 1174CHOL    R210576  10.022   0.508   5.419 -0.3316 -0.0217  0.0518
 1174CHOL    R310577  10.220   0.358   5.309 -0.1310  0.2252  0.0688
 1174CHOL    R410578  10.214   0.279   5.592 -0.2276  0.0295  0.0041
 1174CHOL    R510579  10.388   0.348   5.480 -0.2231  0.2571  0.1564
 1174CHOL    C110580  10.512   0.004   5.590  0.0213  0.2912 -0.0078
 1174CHOL    C210581  10.516  -0.350   5.722 -0.0319  0.0356  0.1576
 1175CHOL   ROH10582   3.473   4.575   8.325 -0.0716  0.0641 -0.1283
 1175CHOL    R110583   3.374   4.309   8.320 -0.1233  0.0831 -0.1466
 1175CHOL    R210584   3.139   4.240   8.192 -0.0676  0.1135 -0.2702
 1175CHOL    R310585   3.299   4.061   8.065 -0.0311  0.0645 -0.1558
 1175CHOL    R410586   3.026   3.977   7.999 -0.0120 -0.0141 -0.1304
 1175CHOL    R510587   3.183   3.853   8.085 -0.0007  0.0583 -0.0473
 1175CHOL    C110588   3.110   3.656   7.767  0.0547 -0.1344  0.0584
 1175CHOL    C210589   2.980   3.345   7.680  0.2364 -0.0543  0.1632
 1176XCA    COO10590   7.087   6.708   8.829 -0.1380  0.1780  0.2960
 1176XCA     C110591   6.841   6.747   8.408 -0.2240  0.2582 -0.1477
 1176XCA     C210592   6.741   6.991   8.030  0.1048  0.2372  0.1292
 1176XCA     C310593   6.657   7.282   7.895 -0.2870 -0.1209 -0.1190
 1176XCA     C410594   6.408   7.668   7.762 -0.2239  0.2307  0.2613
 1176XCA     C510595   6.363   8.099   7.764  0.0239 -0.2465 -0.0995
 1176XCA     C610596   6.022   8.324   7.810  0.1217  0.0738 -0.0581
 1177XCA    COO10597   6.405   7.699   5.071 -0.1557  0.0710  0.1335
 1177XCA     C110598   6.151   7.565   5.408 -0.2266 -0.4599  0.1922
 1177XCA     C210599   6.226   7.661   5.833 -0.0017 -0.0424 -0.0738
 1177XCA     C310600   6.315   7.369   6.238  0.0751 -0.2135 -0.1073
 1177XCA     C410601   6.310   7.139   6.548 -0.2295 -0.1849 -0.1943
 1177XCA     C510602   6.618   7.054   6.952 -0.3993 -0.0261 -0.2009
 1177XCA     C610603   6.663   6.637   7.055  0.0002 -0.2582 -0.3537
 1178XCA    COO10604  11.333  15.667   8.017  0.0659  0.0859  0.0667
 1178XCA     C110605  11.405  15.574   7.585  0.0824 -0.1608  0.1770
 1178XCA     C210606  11.488  15.621   7.179  0.1359  0.0862 -0.1943
 1178XCA     C310607  11.557  15.882   6.928 -0.2488 -0.2723  0.0843
 1178XCA     C410608  11.372  16.178   6.694 -0.1784 -0.0506 -0.0315
 1178XCA     C510609  11.505  16.261   6.229  0.0127 -0.0726  0.1571
 1178XCA     C610610  11.329  16.193   5.752 -0.0310 -0.1905 -0.3120
 1179XCA    COO10611   1.904  13.699   4.506  0.2844  0.1864  0.0258
 1179XCA     C110612   1.686  13.721   4.919 -0.1223 -0.2604 -0.1469
 1179XCA     C210613   1.798  13.782   5.389 -0.2064  0.1629  0.0320
 1179XCA     C310614   1.761  13.966   5.842  0.3159 -0.0937  0.0982
 1179XCA     C410615   1.644  14.278   6.201 -0.3028  0.1419 -0.3176
 1179XCA     C510616   1.545  14.718   6.435  0.0037  0.1405 -0.0337
 1179XCA     C610617   1.462  15.131   6.428 -0.1447 -0.1843 -0.1208
 1180CHOL   ROH10618   9.974   2.683   8.189  0.0805  0.0987 -0.1880
 1180CHOL    R110619   9.842   2.708   7.939 -0.0159  0.2142 -0.1269
 1180CHOL    R210620   9.934   2.874   7.739  0.0729  0.0858 -0.1956
 1180CHOL    R310621   9.923   2.646   7.590 -0.2567  0.0757 -0.1597
 1180CHOL    R410622   9.876   2.864   7.398  0.1269  0.1215 -0.2056
 1180CHOL    R510623   9.750   2.689   7.430 -0.1587  0.3249 -0.2023
 1180CHOL    C110624   9.832   2.644   7.060 -0.1512  0.1328 -0.1775
 1180CHOL    C210625   9.966   2.620   6.633 -0.2514 -0.0280  0.0658
 1181PNCE   AM110626   0.406  11.435   4.646 -0.0053 -0.2052 -0.0924
 1181PNCE   AM210627   0.217  11.593   4.792  0.0626 -0.0474 -0.3714
 1181PNCE   T1A10628   0.781  11.255   4.869  0.1211 -0.1565  0.0372
 1181PNCE   C2A10629   1.071  11.265   5.225 -0.1350  0.2459  0.4539
 1181PNCE   C3A10630   1.317  11.064   5.602 -0.0167 -0.1503 -0.1151
 1181PNCE   C1B10631   0.206  11.743   5.194  0.0113  0.2273 -0.0965
 1181PNCE   C2B10632   0.179  11.981   5.446 -0.0214  0.1486 -0.0446
 1181PNCE   C3B10633  -0.095  12.096   5.733  0.0305  0.2524  0.2827
 1181PNCE   D4B10634  -0.283  12.274   6.096 -0.3483 -0.3323  0.3195
 1181PNCE   C5B10635  -0.271  12.131   6.478 -0.1398  0.3255 -0.4366
 1181PNCE   C6B10636   0.080  12.089   6.727 -0.1232  0.2079  0.2374
 1182CHOL   ROH10637   8.829   8.196   7.933  0.1058  0.2571  0.1089
 1182CHOL    R110638   9.059   8.134   7.780  0.0909 -0.0896  0.2155
 1182CHOL    R210639   9.122   7.876   7.702 -0.4018 -0.1668  0.0211
 1182CHOL    R310640   9.129   7.988   7.455 -0.0006  0.0632  0.1270
 1182CHOL    R410641   9.237   7.718   7.417 -0.2857 -0.0299 -0.0083
 1182CHOL    R510642   9.331   7.905   7.357  0.0054 -0.0839  0.2677
 1182CHOL    C110643   9.310   7.731   7.019  0.1585  0.2659  0.0741
 1182CHOL    C210644   9.373   7.823   6.654  0.1542 -0.0998  0.3412
 1183PNCE   AM110645   9.034   5.883   4.637  0.0611  0.0509  0.0520
 1183PNCE   AM210646   8.915   6.091   4.487  0.0471  0.0174 -0.1980
 1183PNCE   T1A10647   9.151   5.401   4.628  0.0029 -0.0428  0.0076
 1183PNCE   C2A10648   9.097   4.920   4.699  0.3397  0.0505 -0.1488
 1183PNCE   C3A10649   9.324   4.561   4.937 -0.1332  0.1169 -0.1005
 1183PNCE   C1B10650   8.726   6.133   4.965 -0.1400  0.0689 -0.3961
 1183PNCE   C2B10651   8.720   6.157   5.472  0.1690  0.1543  0.2590
 1183PNCE   C3B10652   8.704   6.363   5.867 -0.0789 -0.5904  0.2615
 1183PNCE   D4B10653   8.813   6.506   6.267 -0.1638  0.0626  0.0718
 1183PNCE   C5B10654   9.222   6.393   6.423 -0.2444 -0.2661 -0.1498
 1183PNCE   C6B10655   9.663   6.451   6.710  0.2834  0.0892 -0.1593
 1184PNCE   AM110656   6.835   5.004   4.722 -0.3119  0.2686  0.1112
 1184PNCE   AM210657   6.513   5.057   4.571  0.0515 -0.1638 -0.0825
 1184PNCE   T1A10658   6.782   4.919   5.130 -0.0871  0.0901 -0.2817
 1184PNCE   C2A10659   6.794   4.731   5.559 -0.0808 -0.0276 -0.1265
 1184PNCE   C3A10660   6.697   4.675   5.916 -0.4715 -0.1766  0.0013
 1184PNCE   C1B10661   6.309   5.083   5.048  0.3392 -0.0787  0.0002
 1184PNCE   C2B10662   6.101   5.054   5.371 -0.0853 -0.3894 -0.1962
 1184PNCE   C3B10663   6.009   4.735   5.696 -0.1454 -0.2685 -0.1896
 1184PNCE   D4B10664   5.870   4.329   5.690 -0.1107 -0.0088  0.2867
 1184PNCE   C5B10665   6.187   3.884   5.500 -0.2862  0.4855 -0.1621
 1184PNCE   C6B10666   6.314   3.699   5.100  0.1659 -0.1033  0.1153
 1185PNCE   AM110667   5.499   9.430   5.518 -0.0135  0.0336  0.1388
 1185PNCE   AM210668   5.207   9.444   5.450 -0.0430 -0.2098 -0.0762
 1185PNCE   T1A10669   5.839   9.297   5.737  0.0987  0.3220 -0.0023
 1185PNCE   C2A10670   6.025   9.454   6.153 -0.0195 -0.4531  0.0620
 1185PNCE   C3A10671   6.396   9.363   6.462 -0.1299 -0.3153 -0.1778
 1185PNCE   C1B10672   5.120   9.670   5.762  0.1519 -0.3227  0.1185
 1185PNCE   C2B10673   5.098   9.701   6.146 -0.1031 -0.0515  0.0755
 1185PNCE   C3B10674   5.329   9.861   6.458 -0.2561 -0.0669  0.0499
 1185PNCE   D4B10675   5.459  10.037   6.824 -0.1920  0.1138  0.6120
 1185PNCE   C5B10676   5.821   9.954   7.084 -0.1054  0.0722  0.2278
 1185PNCE   C6B10677   6.163  10.004   7.228 -0.1834 -0.0006  0.0108
 1186XCA    COO10678   7.547   0.046   3.787  0.0355 -0.1025  0.0209
 1186XCA     C110679   7.554   0.301   4.163 -0.0018  0.0242  0.1727
 1186XCA     C210680   7.541   0.617   4.550  0.1026 -0.1985 -0.2766
 1186XCA     C310681   7.739   0.692   4.875 -0.2327  0.0419 -0.1716
 1186XCA     C410682   8.260   0.694   4.855 -0.2458  0.3398  0.1372
 1186XCA     C510683   8.637   0.856   4.783 -0.0524 -0.0941 -0.1243
 1186XCA     C610684   9.006   1.030   4.604 -0.3650 -0.0649  0.2709
 1187CHOL   ROH10685   6.240   6.333   8.697 -0.0896 -0.0196  0.0275
 1187CHOL    R110686   6.071   6.304   8.472 -0.0517  0.1196 -0.0200
 1187CHOL    R210687   5.990   6.519   8.318  0.2372  0.1780 -0.0950
 1187CHOL    R310688   6.092   6.370   8.115  0.1370  0.0166 -0.0289
 1187CHOL    R410689   5.867   6.515   7.995  0.2443  0.1306 -0.0972
 1187CHOL    R510690   5.900   6.299   7.990  0.0886  0.1029 -0.0046
 1187CHOL    C110691   5.892   6.373   7.616  0.1544 -0.0484 -0.0365
 1187CHOL    C210692   5.981   6.152   7.381  0.1698  0.0178  0.0293
 1188XCA    COO10693   1.504  13.105   8.080  0.0937 -0.1612  0.0485
 1188XCA     C110694   1.792  12.781   7.808 -0.1023 -0.0287 -0.3564
 1188XCA     C210695   1.976  12.416   7.726 -0.0647  0.1273 -0.1874
 1188XCA     C310696   2.233  12.255   7.425  0.1899 -0.0895 -0.1722
 1188XCA     C410697   2.023  12.028   6.964  0.0837 -0.0013  0.1793
 1188XCA     C510698   1.774  11.948   6.636 -0.1139 -0.1630  0.1493
 1188XCA     C610699   1.460  11.936   6.380  0.2230 -0.1467  0.2461
 1189XCA    COO10700  15.043   4.785   5.013 -0.1841  0.3465 -0.2129
 1189XCA     C110701  15.283   4.824   5.452  0.0538 -0.1176  0.1399
 1189XCA     C210702  15.047   4.648   5.772  0.2392  0.2751  0.0076
 1189XCA     C310703  14.987   4.683   6.209  0.0971  0.1827  0.2117
 1189XCA     C410704  15.059   4.823   6.717 -0.1486 -0.1840 -0.0586
 1189XCA     C510705  15.402   5.021   6.986  0.0056 -0.0401 -0.3222
 1189XCA     C610706  15.622   5.328   7.259 -0.3238  0.2740  0.2292
 1190PNCE   AM110707   9.079   0.371   4.140 -0.0641 -0.2141 -0.0475
 1190PNCE   AM210708   9.404   0.204   4.277 -0.3493  0.2632 -0.1499
 1190PNCE   T1A10709   8.670   0.218   4.375 -0.1427 -0.3337 -0.0744
 1190PNCE   C2A10710   8.375   0.204   4.744  0.1190 -0.0927  0.2919
 1190PNCE   C3A10711   8.008   0.279   5.036  0.0760  0.0147 -0.2035
 1190PNCE   C1B10712   9.495   0.329   4.717  0.2275 -0.2395 -0.0399
 1190PNCE   C2B10713   9.338   0.319   5.091 -0.0692  0.1147 -0.2050
 1190PNCE   C3B10714   9.129   0.342   5.429 -0.0324  0.2096  0.1614
 1190PNCE   D4B10715   9.207   0.182   5.821  0.0879 -0.1253  0.1696
 1190PNCE   C5B10716   9.499   0.347   5.981  0.0489  0.1684 -0.1911
 1190PNCE   C6B10717   9.851   0.612   5.901  0.2219  0.0776  0.1413
 1191PNCE   AM110718   7.634   2.016   4.253  0.0571 -0.2312 -0.1123
 1191PNCE   AM210719   7.715   1.796   4.503 -0.2388  0.0574 -0.1868
 1191PNCE   T1A10720   8.028   2.201   4.517 -0.1448 -0.0837 -0.3052
 1191PNCE   C2A10721   8.116   2.430   4.894 -0.0074  0.0498 -0.0413
 1191PNCE   C3A10722   8.141   2.788   4.921  0.0737  0.0842  0.2567
 1191PNCE   C1B10723   7.880   1.675   4.862  0.3652  0.1333 -0.1608
 1191PNCE   C2B10724   7.691   1.701   5.244  0.0804  0.4733  0.0923
 1191PNCE   C3B10725   7.514   1.741   5.733  0.0057 -0.1782 -0.1168
 1191PNCE   D4B10726   7.566   1.556   6.225 -0.2012 -0.0372  0.1583
 1191PNCE   C5B10727   7.964   1.649   6.418  0.0812  0.1601 -0.0134
 1191PNCE   C6B10728   8.283   1.974   6.239  0.1550  0.2911 -0.0744
 1192CHOL   ROH10729   7.824   0.066   6.617  0.0086  0.0022 -0.2032
 1192CHOL    R110730   7.801  -0.186   6.489  0.1341 -0.0233 -0.1770
 1192CHOL    R210731   8.021  -0.335   6.413  0.2092  0.0265 -0.0599
 1192CHOL    R310732   7.900  -0.529   6.560  0.1991  0.0143 -0.0840
 1192CHOL    R410733   7.980  -0.663   6.312  0.1718  0.0463 -0.1096
 1192CHOL    R510734   7.780  -0.659   6.399  0.1772  0.0513 -0.0978
 1192CHOL    C110735   7.842  -1.036   6.391  0.1405  0.0463 -0.1612
 1192CHOL    C210736   8.030  -1.379   6.452 -0.1012 -0.1895  0.0080
 1193PNCE   AM110737   3.435   0.701   4.850  0.2883 -0.2790  0.2558
 1193PNCE   AM210738   3.505   1.001   4.926  0.2425 -0.1081  0.0951
 1193PNCE   T1A10739   3.421   0.603   5.352  0.3390 -0.2417  0.2307
 1193PNCE   C2A10740   3.102   0.571   5.626 -0.1982  0.0756 -0.1570
 1193PNCE   C3A10741   2.820   0.418   5.906 -0.2236  0.0118 -0.1169
 1193PNCE   C1B10742   3.860   0.908   5.158  0.1696 -0.0932 -0.0577
 1193PNCE   C2B10743   3.960   1.082   5.627  0.2678 -0.1621  0.2529
 1193PNCE   C3B10744   4.319   1.033   5.842  0.0517 -0.0183 -0.0380
 1193PNCE   D4B10745   4.745   1.070   5.681 -0.1400  0.1818 -0.0498
 1193PNCE   C5B10746   4.991   0.936   5.255  0.2564 -0.5332 -0.1393
 1193PNCE   C6B10747   5.244   0.788   4.994 -0.1703 -0.1367 -0.0325
 1194CHOL   ROH10748  10.522   6.769   8.158  0.1829 -0.3045 -0.0968
 1194CHOL    R110749  10.585   6.624   7.923  0.3902 -0.0798 -0.1848
 1194CHOL    R210750  10.395   6.557   7.735  0.4533 -0.3556 -0.1559
 1194CHOL    R310751  10.566   6.681   7.564  0.1712  0.0570 -0.1533
 1194CHOL    R410752  10.358   6.568   7.391  0.4979 -0.5632 -0.1686
 1194CHOL    R510753  10.573   6.538   7.372  0.5977  0.0041 -0.1071
 1194CHOL    C110754  10.498   6.691   7.031  0.2590 -0.2966 -0.1735
 1194CHOL    C210755  10.635   6.517   6.631  0.1796  0.3734  0.0186
 1195CHOL   ROH10756   1.538  13.291   4.429  0.0957 -0.1311  0.1407
 1195CHOL    R110757   1.392  13.507   4.540  0.0012 -0.1194 -0.0041
 1195CHOL    R210758   1.124  13.489   4.600  0.0276 -0.2263  0.0899
 1195CHOL    R310759   1.206  13.571   4.846  0.0544  0.0359 -0.0040
 1195CHOL    R410760   0.932  13.675   4.820 -0.1153 -0.3758  0.0939
 1195CHOL    R510761   1.111  13.790   4.870 -0.2506 -0.0848 -0.0756
 1195CHOL    C110762   0.899  13.860   5.179 -0.1732 -0.2169  0.0081
 1195CHOL    C210763   0.970  14.169   5.310  0.0400  0.0631 -0.0788
 1196CHOL   ROH10764   9.710   3.895   7.588  0.1014 -0.0611 -0.1155
 1196CHOL    R110765   9.635   3.985   7.330  0.3293 -0.0464 -0.1800
 1196CHOL    R210766   9.409   4.138   7.286  0.0652 -0.4769 -0.4338
 1196CHOL    R310767   9.586   4.306   7.166 -0.0681 -0.0265 -0.0285
 1196CHOL    R410768   9.343   4.324   7.002  0.1854 -0.4621 -0.4519
 1196CHOL    R510769   9.545   4.278   6.931  0.4164  0.0087 -0.1221
 1196CHOL    C110770   9.471   4.590   6.724  0.1303 -0.0307 -0.0821
 1196CHOL    C210771   9.276   4.654   6.448  0.1525  0.1058 -0.2941
 1197CHOL   ROH10772   9.607  15.450   8.117  0.1097 -0.0503 -0.0193
 1197CHOL    R110773   9.639  15.509   7.842  0.2961 -0.0765 -0.0054
 1197CHOL    R210774   9.876  15.465   7.707  0.3072 -0.3539  0.0901
 1197CHOL    R310775   9.715  15.323   7.539  0.2037 -0.1602  0.0239
 1197CHOL    R410776   9.972  15.340   7.399  0.1840 -0.2218 -0.0030
 1197CHOL    R510777   9.777  15.397   7.320  0.2088 -0.0642  0.0615
 1197CHOL    C110778   9.878  15.134   7.063  0.0150  0.0370 -0.1193
 1197CHOL    C210779   9.830  15.211   6.707 -0.3293  0.1188  0.0911
 1198PNCE   AM110780   3.670   7.261   5.737  0.1038  0.1906  0.1883
 1198PNCE   AM210781   3.593   7.516   5.710  0.0315  0.1427 -0.2143
 1198PNCE   T1A10782   3.552   7.335   6.179 -0.2143 -0.0410 -0.0384
 1198PNCE   C2A10783   3.628   7.416   6.571  0.0046 -0.1484  0.0594
 1198PNCE   C3A10784   3.544   7.464   7.090  0.0166 -0.0228 -0.3762
 1198PNCE   C1B10785   3.755   7.771   5.929  0.2316  0.0086 -0.2847
 1198PNCE   C2B10786   3.927   7.739   6.268 -0.1482  0.0656  0.2072
 1198PNCE   C3B10787   3.953   7.825   6.736 -0.0766 -0.2014  0.0819
 1198PNCE   D4B10788   3.912   7.858   7.239 -0.1218  0.0730 -0.3500
 1198PNCE   C5B10789   3.922   7.400   7.457 -0.0238  0.4940 -0.0481
 1198PNCE   C6B10790   3.878   6.869   7.480  0.0699  0.0380  0.2082
 1199PNCE   AM110791  12.323   0.554   4.519  0.0428  0.4500 -0.1620
 1199PNCE   AM210792  12.414   0.713   4.736  0.1751 -0.1093  0.1326
 1199PNCE   T1A10793  12.156   0.361   4.891 -0.1730 -0.3258  0.0504
 1199PNCE   C2A10794  11.773   0.193   5.253 -0.0496  0.1923  0.1003
 1199PNCE   C3A10795  11.580  -0.080   5.527 -0.1233 -0.0501 -0.1081
 1199PNCE   C1B10796  12.723   0.563   4.989 -0.2695  0.0484  0.1479
 1199PNCE   C2B10797  12.960   0.359   5.285  0.1083  0.1023  0.1227
 1199PNCE   C3B10798  13.266   0.063   5.470 -0.0765 -0.0716  0.1189
 1199PNCE   D4B10799  13.393  -0.186   5.776  0.2688 -0.1949 -0.0945
 1199PNCE   C5B10800  13.353  -0.074   6.264 -0.1279 -0.1460 -0.1260
 1199PNCE   C6B10801  13.494   0.197   6.471  0.3275  0.1153  0.1685
 1200CHOL   ROH10802  15.219   7.377   5.762 -0.0601  0.1751  0.0085
 1200CHOL    R110803  15.237   7.255   6.017  0.0454  0.1846  0.0069
 1200CHOL    R210804  15.171   7.388   6.251  0.0264  0.1568  0.0216
 1200CHOL    R310805  15.007   7.174   6.288  0.1331  0.0802  0.0491
 1200CHOL    R410806  14.972   7.337   6.529 -0.1882  0.2469 -0.1133
 1200CHOL    R510807  15.025   7.126   6.522 -0.0437  0.2774  0.1024
 1200CHOL    C110808  14.703   7.106   6.725 -0.2130  0.2276 -0.1662
 1200CHOL    C210809  14.523   6.937   7.067 -0.1397  0.0416  0.1361
 1201CHOL   ROH10810  12.887  13.125   7.506  0.0748 -0.2068  0.1474
 1201CHOL    R110811  13.110  13.259   7.394  0.0799 -0.3293  0.0077
 1201CHOL    R210812  13.311  13.125   7.259 -0.1587 -0.4229 -0.2671
 1201CHOL    R310813  13.252  13.304   7.062 -0.2065 -0.2602 -0.1080
 1201CHOL    R410814  13.532  13.231   7.015 -0.1916 -0.1461 -0.1808
 1201CHOL    R510815  13.453  13.432   7.037 -0.2413 -0.1856  0.0012
 1201CHOL    C110816  13.606  13.459   6.689 -0.2554  0.1678  0.0188
 1201CHOL    C210817  13.986  13.540   6.544  0.2039  0.0966  0.1950
 1202XCA    COO10818  14.171  13.050   8.442  0.2677 -0.1690  0.1271
 1202XCA     C110819  14.352  13.057   7.929  0.1876  0.2038  0.0352
 1202XCA     C210820  14.118  12.786   7.641  0.0056  0.1960 -0.2073
 1202XCA     C310821  14.063  12.694   7.298 -0.1073 -0.0041  0.1801
 1202XCA     C410822  14.470  12.422   7.135 -0.1684  0.0556  0.0609
 1202XCA     C510823  14.793  12.500   6.938  0.1615  0.0957 -0.5157
 1202XCA     C610824  14.854  12.850   6.633  0.1179 -0.1114 -0.1816
 1203PNCE   AM110825  15.492   9.066   5.461 -0.0803  0.0114 -0.0807
 1203PNCE   AM210826  15.502   8.706   5.297 -0.0490  0.0275  0.0457
 1203PNCE   T1A10827  15.514   9.445   5.474  0.1520 -0.1275 -0.0889
 1203PNCE   C2A10828  15.715   9.668   5.813  0.0237  0.0584  0.1850
 1203PNCE   C3A10829  15.739   9.635   6.311 -0.0956 -0.0764  0.1947
 1203PNCE   C1B10830  15.115   8.564   5.577  0.0656  0.0771 -0.1304
 1203PNCE   C2B10831  14.768   8.707   5.793 -0.0609  0.1311 -0.2473
 1203PNCE   C3B10832  14.368   8.521   5.955  0.0127  0.0588 -0.1529
 1203PNCE   D4B10833  14.124   8.252   6.304 -0.3028 -0.2542 -0.1530
 1203PNCE   C5B10834  14.327   8.223   6.735 -0.1422  0.1558 -0.3714
 1203PNCE   C6B10835  14.335   8.166   7.198 -0.1651 -0.0528  0.0033
 1204CHOL   ROH10836   0.882  12.886   6.202  0.0999  0.0347  0.2455
 1204CHOL    R110837   0.817  13.023   6.442 -0.1546 -0.0300  0.2159
 1204CHOL    R210838   0.593  12.962   6.591 -0.0854 -0.3668  0.1909
 1204CHOL    R310839   0.773  12.935   6.792 -0.0683 -0.0489  0.2223
 1204CHOL    R410840   0.514  12.962   6.927 -0.1200 -0.3057  0.1828
 1204CHOL    R510841   0.693  13.082   6.964 -0.2685 -0.0648  0.1456
 1204CHOL    C110842   0.638  12.937   7.313 -0.1240  0.0284  0.2076
 1204CHOL    C210843   0.445  12.642   7.563 -0.0240  0.1628  0.1161
 1205CHOL   ROH10844   8.723   7.634   8.391  0.1769  0.1051  0.0613
 1205CHOL    R110845   8.903   7.613   8.173  0.2211 -0.0403  0.1100
 1205CHOL    R210846   9.068   7.395   8.137  0.0278 -0.1955  0.1330
 1205CHOL    R310847   8.953   7.388   7.891  0.0882 -0.0577  0.1003
 1205CHOL    R410848   9.211   7.252   7.857 -0.0155 -0.2672  0.1477
 1205CHOL    R510849   9.135   7.420   7.739  0.1561 -0.1843  0.1551
 1205CHOL    C110850   9.185   7.163   7.462  0.0159 -0.1796  0.1256
 1205CHOL    C210851   9.054   6.974   7.118 -0.2794 -0.0171  0.3613
 1206PNCE   AM110852  11.096   8.217   4.473 -0.0648  0.0320  0.1683
 1206PNCE   AM210853  10.803   8.128   4.352  0.0423 -0.0644  0.0315
 1206PNCE   T1A10854  11.180   8.539   4.755  0.1045  0.0185 -0.1406
 1206PNCE   C2A10855  11.401   8.649   5.190 -0.4155  0.0659 -0.1684
 1206PNCE   C3A10856  11.805   8.521   5.328  0.1994  0.2267 -0.1338
 1206PNCE   C1B10857  10.715   8.158   4.847  0.1716 -0.1025  0.1325
 1206PNCE   C2B10858  10.489   8.281   5.167 -0.1339  0.1529 -0.1394
 1206PNCE   C3B10859  10.609   8.534   5.575  0.1807 -0.1371  0.1586
 1206PNCE   D4B10860  10.721   8.826   5.948  0.0554 -0.1853  0.2165
 1206PNCE   C5B10861  11.027   8.733   6.208 -0.3780  0.0910  0.1732
 1206PNCE   C6B10862  11.450   8.834   6.397 -0.2329 -0.1979 -0.0362
 1207CHOL   ROH10863   7.387   1.545   4.688  0.0072  0.0592 -0.0195
 1207CHOL    R110864   7.383   1.746   4.887  0.1650 -0.0029  0.0491
 1207CHOL    R210865   7.149   1.856   4.984  0.2502  0.2679 -0.0335
 1207CHOL    R310866   7.251   1.783   5.224  0.0357  0.0453 -0.0070
 1207CHOL    R410867   7.060   1.995   5.287  0.2062  0.1988 -0.0155
 1207CHOL    R510868   7.269   1.988   5.347  0.1636 -0.0349  0.1074
 1207CHOL    C110869   7.104   2.007   5.690 -0.0208 -0.0502  0.0198
 1207CHOL    C210870   6.988   1.878   5.966 -0.0195  0.2665  0.0131
 1208PNCE   AM110871   3.270  10.633   5.019 -0.5343  0.3800  0.1009
 1208PNCE   AM210872   3.535  10.644   5.156  0.1105 -0.0726 -0.0347
 1208PNCE   T1A10873   3.019  10.729   5.388  0.0604  0.2621  0.1218
 1208PNCE   C2A10874   2.733  10.903   5.606  0.2021 -0.3178 -0.4644
 1208PNCE   C3A10875   2.854  11.330   5.498  0.1909 -0.3832  0.2511
 1208PNCE   C1B10876   3.505  10.518   5.632 -0.1153 -0.1327  0.0551
 1208PNCE   C2B10877   3.767  10.478   5.927  0.1925  0.3753 -0.1723
 1208PNCE   C3B10878   3.889  10.246   6.250  0.2592 -0.3302 -0.2086
 1208PNCE   D4B10879   3.974  10.243   6.689 -0.2210 -0.0115  0.1395
 1208PNCE   C5B10880   4.011  10.551   6.904 -0.2227  0.0532 -0.1305
 1208PNCE   C6B10881   4.213  10.923   6.880  0.0917 -0.3849 -0.0585
 1209XCA    COO10882  12.568   1.923   5.324  0.2070  0.1769  0.2375
 1209XCA     C110883  12.372   1.467   5.390  0.1454  0.1240  0.0206
 1209XCA     C210884  12.311   1.266   5.609 -0.2793  0.0573  0.1512
 1209XCA     C310885  12.247   0.976   5.909  0.1179 -0.1979  0.2026
 1209XCA     C410886  12.278   0.654   6.128 -0.1367  0.2665  0.2813
 1209XCA     C510887  12.623   0.276   6.199  0.0392 -0.0890  0.2491
 1209XCA     C610888  12.698  -0.166   6.477  0.1316  0.0425 -0.0807
 1210PNCE   AM110889   0.236  12.102   4.731  0.0909 -0.2887  0.2183
 1210PNCE   AM210890  -0.045  12.038   4.621 -0.0458 -0.0881 -0.3127
 1210PNCE   T1A10891   0.111  12.421   4.968 -0.2581 -0.2139  0.1176
 1210PNCE   C2A10892   0.288  12.781   5.118  0.3281  0.2002 -0.1583
 1210PNCE   C3A10893   0.367  13.126   5.174  0.1387  0.4067  0.1435
 1210PNCE   C1B10894  -0.216  11.894   5.095 -0.1229  0.1185 -0.0369
 1210PNCE   C2B10895  -0.361  11.616   5.368 -0.0473 -0.4433 -0.1161
 1210PNCE   C3B10896  -0.484  11.318   5.744 -0.1611  0.0261 -0.0699
 1210PNCE   D4B10897  -0.807  11.473   6.103  0.2105 -0.0972  0.1181
 1210PNCE   C5B10898  -0.924  11.795   6.187 -0.1607  0.2169  0.0700
 1210PNCE   C6B10899  -1.321  12.056   6.261 -0.1458 -0.2600  0.1612
 1211PNCE   AM110900   0.945   6.333   4.974  0.1566  0.0100 -0.0697
 1211PNCE   AM210901   1.164   6.183   5.168  0.2853 -0.1610 -0.4010
 1211PNCE   T1A10902   0.714   6.582   5.257 -0.2425 -0.1813 -0.1758
 1211PNCE   C2A10903   0.537   6.898   5.540  0.1359 -0.0187  0.1773
 1211PNCE   C3A10904   0.482   6.917   5.932  0.2780 -0.0700  0.1252
 1211PNCE   C1B10905   1.144   6.177   5.614 -0.2067 -0.1396  0.2988
 1211PNCE   C2B10906   1.212   6.108   6.026 -0.0106 -0.4965 -0.4188
 1211PNCE   C3B10907   1.126   5.934   6.356 -0.1287  0.0532 -0.4836
 1211PNCE   D4B10908   1.041   6.121   6.821  0.1895  0.1686  0.1002
 1211PNCE   C5B10909   0.809   6.516   6.891 -0.0270  0.2290 -0.0635
 1211PNCE   C6B10910   0.400   6.798   6.929  0.1301 -0.0937 -0.1684
 1212CHOL   ROH10911   8.907   9.981   6.017  0.0179  0.0046  0.2613
 1212CHOL    R110912   9.129  10.094   5.883 -0.0317  0.0881  0.2488
 1212CHOL    R210913   9.330  10.228   6.017  0.0436 -0.0401  0.2649
 1212CHOL    R310914   9.490  10.050   5.887 -0.0330  0.0454  0.0478
 1212CHOL    R410915   9.666  10.276   5.952  0.0635 -0.1014  0.3221
 1212CHOL    R510916   9.636  10.187   5.755  0.0228  0.1474  0.2108
 1212CHOL    C110917  10.013  10.137   5.794  0.0030 -0.0567  0.1516
 1212CHOL    C210918  10.430   9.968   5.669 -0.2501  0.1777  0.0895
 1213PNCE   AM110919   3.729  14.181   5.586  0.0230  0.0692 -0.0208
 1213PNCE   AM210920   3.519  14.080   5.834  0.2075 -0.1173  0.0267
 1213PNCE   T1A10921   4.016  14.033   5.840  0.1736  0.2080  0.1974
 1213PNCE   C2A10922   4.308  14.309   6.018 -0.1871  0.1885  0.2479
 1213PNCE   C3A10923   4.259  14.663   6.332  0.0471  0.0298  0.1740
 1213PNCE   C1B10924   3.272  14.299   6.005 -0.1618  0.0058  0.0094
 1213PNCE   C2B10925   2.866  14.484   6.248  0.1500 -0.1673 -0.2360
 1213PNCE   C3B10926   2.725  14.714   6.606 -0.1236 -0.0360  0.1861
 1213PNCE   D4B10927   2.618  15.161   6.569  0.2242 -0.2263  0.0993
 1213PNCE   C5B10928   2.962  15.389   6.512  0.1079  0.0434 -0.1639
 1213PNCE   C6B10929   3.326  15.672   6.759  0.0836 -0.2047  0.2362
 1214PNCE   AM110930   6.621   0.207   4.692 -0.0314  0.1928 -0.2262
 1214PNCE   AM210931   6.320   0.052   4.786 -0.2985  0.0468 -0.0703
 1214PNCE   T1A10932   6.631   0.553   4.987 -0.0958  0.2215 -0.1735
 1214PNCE   C2A10933   6.705   0.706   5.399 -0.1285  0.0118 -0.1402
 1214PNCE   C3A10934   6.487   0.709   5.705 -0.4249  0.2208  0.1259
 1214PNCE   C1B10935   6.014   0.080   5.135  0.2525 -0.0430 -0.5996
 1214PNCE   C2B10936   5.815   0.246   5.511  0.1378 -0.0223 -0.0615
 1214PNCE   C3B10937   5.685   0.305   5.849 -0.0487  0.1618  0.0769
 1214PNCE   D4B10938   5.642   0.115   6.197 -0.0817 -0.0873 -0.0725
 1214PNCE   C5B10939   5.402   0.203   6.546  0.1707  0.1298 -0.2207
 1214PNCE   C6B10940   5.423   0.054   7.050  0.0598 -0.3197  0.3472
 1215XCA    COO10941   5.062  14.168   5.376 -0.1907  0.0869  0.3493
 1215XCA     C110942   4.995  14.430   5.688  0.0797  0.0263 -0.0504
 1215XCA     C210943   5.230  14.627   5.975 -0.0199  0.2823 -0.0633
 1215XCA     C310944   5.486  14.800   6.398 -0.2622 -0.0923  0.2680
 1215XCA     C410945   5.793  14.594   6.732  0.1000  0.2401 -0.1860
 1215XCA     C510946   5.880  14.668   7.071 -0.1868 -0.0362 -0.1445
 1215XCA     C610947   6.258  14.474   7.122  0.1707 -0.0576 -0.0342
 1216CHOL   ROH10948  11.060   7.013   8.027  0.1297 -0.2267 -0.1227
 1216CHOL    R110949  10.971   6.901   7.783 -0.1913 -0.0721 -0.0820
 1216CHOL    R210950  10.757   7.004   7.641 -0.0398  0.3608 -0.0171
 1216CHOL    R310951  10.937   7.012   7.438 -0.0835 -0.0305 -0.0785
 1216CHOL    R410952  10.676   7.044   7.308 -0.0711  0.2617 -0.0216
 1216CHOL    R510953  10.828   6.896   7.258 -0.2985  0.0088  0.0272
 1216CHOL    C110954  10.797   7.075   6.922 -0.1302 -0.1633 -0.0818
 1216CHOL    C210955  10.480   7.054   6.681 -0.0663 -0.0502 -0.2436
 1217CHOL   ROH10956  12.150   8.786   4.745  0.0165  0.2487 -0.2043
 1217CHOL    R110957  11.968   8.976   4.850 -0.0841  0.1048 -0.1168
 1217CHOL    R210958  11.756   8.904   5.013  0.0334 -0.0677 -0.0364
 1217CHOL    R310959  11.865   9.087   5.181 -0.0356  0.0014 -0.0664
 1217CHOL    R410960  11.646   8.968   5.334  0.1592 -0.2236  0.0395
 1217CHOL    R510961  11.677   9.180   5.298 -0.0535 -0.1873  0.0580
 1217CHOL    C110962  11.684   9.178   5.679  0.1679 -0.2496  0.0555
 1217CHOL    C210963  11.746   9.155   6.033 -0.0558 -0.0468  0.0167
 1218CHOL   ROH10964  15.454  12.262   8.344 -0.5013 -0.0709  0.0183
 1218CHOL    R110965  15.447  12.123   8.097 -0.0700 -0.0762  0.0028
 1218CHOL    R210966  15.280  12.195   7.890 -0.1695 -0.4590 -0.0564
 1218CHOL    R310967  15.511  12.201   7.748 -0.1141  0.1061  0.0340
 1218CHOL    R410968  15.300  12.184   7.545 -0.0097 -0.4877 -0.0469
 1218CHOL    R510969  15.472  12.052   7.564  0.3370 -0.0483  0.0500
 1218CHOL    C110970  15.529  12.184   7.211  0.1352  0.0260  0.0436
 1218CHOL    C210971  15.237  12.241   6.868  0.0282  0.1894 -0.3604
 1219CHOL   ROH10972   6.187   0.968   4.805 -0.3217  0.0585  0.0357
 1219CHOL    R110973   6.226   1.131   5.033 -0.0586  0.0555 -0.0053
 1219CHOL    R210974   6.094   1.086   5.272 -0.0523  0.2663  0.0308
 1219CHOL    R310975   6.346   1.085   5.374 -0.0266 -0.0252 -0.0248
 1219CHOL    R410976   6.172   1.121   5.607  0.0537  0.5086 -0.0154
 1219CHOL    R510977   6.340   1.247   5.550  0.2564  0.1889 -0.1940
 1219CHOL    C110978   6.453   1.139   5.898  0.1396  0.3761 -0.0945
 1219CHOL    C210979   6.556   1.229   6.204  0.2645 -0.1435 -0.2676
 1220XCA    COO10980   7.491   7.138   8.860 -0.2225  0.0454 -0.1690
 1220XCA     C110981   7.629   7.094   8.479  0.2367 -0.0061  0.0242
 1220XCA     C210982   7.705   6.985   8.023 -0.0864  0.1439  0.1530
 1220XCA     C310983   7.775   6.918   7.612  0.1663  0.0537 -0.1228
 1220XCA     C410984   7.981   6.854   7.209  0.2259  0.0408 -0.1166
 1220XCA     C510985   7.968   6.636   6.753  0.2105 -0.1487 -0.0127
 1220XCA     C610986   7.677   6.584   6.431 -0.3288  0.0474 -0.2087
 1221CHOL   ROH10987   6.462  13.108   7.652 -0.1035 -0.0413  0.0923
 1221CHOL    R110988   6.405  13.180   7.384 -0.0212 -0.0098  0.0834
 1221CHOL    R210989   6.307  13.428   7.314 -0.0223 -0.0114  0.0857
 1221CHOL    R310990   6.521  13.431   7.147  0.0323  0.0347  0.1555
 1221CHOL    R410991   6.294  13.508   6.978  0.0488 -0.1111  0.0588
 1221CHOL    R510992   6.436  13.347   6.940  0.1338 -0.0623  0.1503
 1221CHOL    C110993   6.488  13.557   6.625  0.1415 -0.1257  0.1087
 1221CHOL    C210994   6.641  13.968   6.434 -0.1094 -0.2099 -0.2465
 1222PNCE   AM110995   9.588  11.670   4.537 -0.1273 -0.2321 -0.2988
 1222PNCE   AM210996   9.586  11.364   4.625  0.0630 -0.1002  0.0057
 1222PNCE   T1A10997   9.786  12.078   4.758  0.0685 -0.2707 -0.1220
 1222PNCE   C2A10998   9.910  12.301   5.102  0.0402  0.1489  0.0160
 1222PNCE   C3A10999   9.924  12.212   5.577  0.1545 -0.3348  0.0730
 1222PNCE   C1B11000   9.448  11.329   5.000 -0.3868  0.1149  0.1318
 1222PNCE   C2B11001   9.366  11.430   5.527 -0.0841  0.0118 -0.3483
 1222PNCE   C3B11002   9.552  11.753   5.824  0.6043  0.0230 -0.2302
 1222PNCE   D4B11003   9.905  11.906   6.041 -0.2548 -0.3209  0.2193
 1222PNCE   C5B11004  10.364  11.889   5.689  0.1136 -0.1939 -0.1968
 1222PNCE   C6B11005  10.761  12.022   5.628  0.2268  0.1601 -0.0779
 1223PNCE   AM111006   2.849   0.595   4.640 -0.0875  0.3519 -0.1280
 1223PNCE   AM211007   2.978   0.823   4.655 -0.1550 -0.2214  0.1698
 1223PNCE   T1A11008   2.895   0.603   5.101  0.1909  0.1920  0.0284
 1223PNCE   C2A11009   2.642   0.704   5.458  0.0248  0.2216 -0.0841
 1223PNCE   C3A11010   2.460   0.842   5.810  0.0522 -0.1268 -0.1736
 1223PNCE   C1B11011   3.089   1.078   5.100  0.0163 -0.2721  0.0111
 1223PNCE   C2B11012   3.027   1.067   5.466  0.0466 -0.2002 -0.0731
 1223PNCE   C3B11013   2.968   1.167   5.833 -0.0605 -0.2364 -0.0231
 1223PNCE   D4B11014   2.894   0.898   6.092  0.0768 -0.0588  0.2790
 1223PNCE   C5B11015   2.843   1.020   6.471 -0.2565 -0.0010 -0.0190
 1223PNCE   C6B11016   2.902   1.115   6.968  0.0217  0.0172  0.3099
 1224PNCE   AM111017  15.195   1.343   4.244  0.0253 -0.0172  0.3089
 1224PNCE   AM211018  14.842   1.251   4.340 -0.0172  0.4392  0.1948
 1224PNCE   T1A11019  15.155   1.615   4.585  0.2298 -0.0564 -0.0449
 1224PNCE   C2A11020  15.526   1.771   4.859 -0.0734 -0.2728 -0.1709
 1224PNCE   C3A11021  15.687   1.447   5.172  0.1369 -0.1811 -0.2324
 1224PNCE   C1B11022  14.816   1.243   4.764  0.1156 -0.0333 -0.1886
 1224PNCE   C2B11023  14.880   1.244   5.168  0.1626  0.1422 -0.3876
 1224PNCE   C3B11024  14.775   1.413   5.643  0.1720  0.0509 -0.1198
 1224PNCE   D4B11025  14.402   1.222   5.848  0.1922 -0.2411  0.1605
 1224PNCE   C5B11026  13.955   1.476   6.004  0.2409 -0.0979  0.2364
 1224PNCE   C6B11027  13.681   1.616   6.323 -0.0472 -0.0428 -0.1557
 1225XCA    COO11028   9.943   8.293   4.649 -0.1212  0.0657 -0.1468
 1225XCA     C111029  10.333   8.424   4.684  0.0149  0.3143 -0.1278
 1225XCA     C211030  10.608   8.866   4.842 -0.0112 -0.0568  0.1944
 1225XCA     C311031  11.013   9.029   4.845 -0.0993  0.3550  0.1358
 1225XCA     C411032  11.238   9.140   5.166  0.1282  0.0363  0.1465
 1225XCA     C511033  11.276   9.404   5.594 -0.1116  0.1323  0.0565
 1225XCA     C611034  11.227   9.274   5.982 -0.0774 -0.0534  0.3784
 1226CHOL   ROH11035   0.197   4.298   5.453  0.2007 -0.0516  0.0476
 1226CHOL    R111036   0.093   4.413   5.689  0.0087 -0.1096 -0.0070
 1226CHOL    R211037   0.239   4.586   5.848 -0.0536 -0.2867  0.2500
 1226CHOL    R311038   0.024   4.749   5.812  0.0896 -0.1284  0.0916
 1226CHOL    R411039   0.149   4.843   6.061 -0.1809 -0.4071  0.3428
 1226CHOL    R511040  -0.060   4.785   6.033 -0.1853 -0.2617  0.0141
 1226CHOL    C111041  -0.105   5.145   6.151 -0.1207 -0.3286  0.2482
 1226CHOL    C211042  -0.075   5.400   6.483 -0.3036  0.0713 -0.1187
 1227CHOL   ROH11043  10.356   9.348   4.619 -0.0194 -0.1024  0.0183
 1227CHOL    R111044  10.628   9.423   4.637 -0.0711  0.0793  0.0509
 1227CHOL    R211045  10.709   9.659   4.756 -0.2217 -0.0236  0.3646
 1227CHOL    R311046  10.865   9.493   4.904 -0.0540 -0.1181  0.0892
 1227CHOL    R411047  11.019   9.741   4.885 -0.1614 -0.0364  0.2294
 1227CHOL    R511048  11.088   9.541   4.833 -0.1204  0.0381 -0.0220
 1227CHOL    C111049  11.346   9.633   5.098  0.0311 -0.1327 -0.1078
 1227CHOL    C211050  11.659   9.824   5.336  0.0179 -0.4362  0.0012
 1228XCA    COO11051   1.681  12.903   4.739 -0.0827 -0.1695 -0.3530
 1228XCA     C111052   1.518  13.194   4.900  0.3554 -0.1520  0.0795
 1228XCA     C211053   1.440  13.350   5.254 -0.2252  0.0007 -0.1689
 1228XCA     C311054   1.330  13.732   5.284  0.0772  0.0255 -0.0128
 1228XCA     C411055   1.433  14.119   5.228 -0.2886  0.0395 -0.0861
 1228XCA     C511056   1.398  14.534   5.272 -0.2337  0.0142  0.2008
 1228XCA     C611057   1.266  14.799   5.053 -0.0069  0.1272  0.1247
 1229CHOL   ROH11058   4.896   6.732   5.646 -0.1544 -0.0713 -0.0336
 1229CHOL    R111059   4.931   6.763   5.925 -0.0818  0.0261 -0.0532
 1229CHOL    R211060   5.004   7.004   6.040 -0.0195  0.0584 -0.1590
 1229CHOL    R311061   4.781   6.963   6.190  0.0110  0.1443 -0.0890
 1229CHOL    R411062   4.968   7.095   6.371  0.2459 -0.2379 -0.0434
 1229CHOL    R511063   4.864   6.907   6.407  0.0645 -0.1662 -0.1839
 1229CHOL    C111064   4.738   7.110   6.705  0.4290 -0.3297  0.0897
 1229CHOL    C211065   4.770   7.427   6.894 -0.0740 -0.1686 -0.0542
 1230CHOL   ROH11066  13.630  12.675   8.605  0.0121  0.0271  0.0668
 1230CHOL    R111067  13.748  12.776   8.369  0.0827  0.0811  0.1256
 1230CHOL    R211068  13.600  12.846   8.146  0.1759 -0.1782 -0.0171
 1230CHOL    R311069  13.730  13.083   8.174 -0.1265 -0.0083 -0.0017
 1230CHOL    R411070  13.786  13.000   7.899  0.2806 -0.1146  0.0996
 1230CHOL    R511071  13.933  13.055   8.051  0.0527  0.1445  0.2420
 1230CHOL    C111072  14.017  13.312   7.782  0.0577  0.0819  0.1821
 1230CHOL    C211073  14.380  13.143   7.437  0.0980 -0.0236  0.0942
 1231CHOL   ROH11074   7.948   5.951   6.112  0.1246 -0.0296 -0.1791
 1231CHOL    R111075   8.046   5.689   6.155  0.1338 -0.0542 -0.3363
 1231CHOL    R211076   8.255   5.582   6.009  0.3977  0.1806 -0.1484
 1231CHOL    R311077   8.362   5.538   6.255  0.0298 -0.0709 -0.0252
 1231CHOL    R411078   8.510   5.358   6.077  0.4603  0.2844 -0.0392
 1231CHOL    R511079   8.405   5.303   6.260  0.1984 -0.0468 -0.2786
 1231CHOL    C111080   8.758   5.187   6.347  0.1515  0.1089  0.1399
 1231CHOL    C211081   9.071   5.089   6.561  0.0014  0.4034  0.1110
 1232XCA    COO11082  15.854  11.242   8.973 -0.0704 -0.1850 -0.0766
 1232XCA     C111083  16.092  11.250   8.576  0.2526  0.0931  0.2613
 1232XCA     C211084  16.105  11.047   8.175  0.0918 -0.1760 -0.0256
 1232XCA     C311085  16.415  11.137   7.856 -0.2859 -0.0646  0.3479
 1232XCA     C411086  16.752  11.179   7.488  0.3361  0.0801 -0.1936
 1232XCA     C511087  16.868  11.154   7.200 -0.2134  0.0066  0.0103
 1232XCA     C611088  17.084  10.796   6.941 -0.0589  0.1682 -0.0872
 1233PNCE   AM111089  13.817   0.996   4.286  0.0674  0.1845  0.0554
 1233PNCE   AM211090  13.556   0.861   4.475 -0.0005 -0.1771  0.1001
 1233PNCE   T1A11091  13.877   1.233   4.662  0.1500  0.1050 -0.2430
 1233PNCE   C2A11092  13.974   1.434   5.060  0.2968 -0.0693 -0.0467
 1233PNCE   C3A11093  13.866   1.671   5.426  0.1421 -0.3373  0.1853
 1233PNCE   C1B11094  13.571   0.758   4.850  0.2568 -0.1191 -0.1405
 1233PNCE   C2B11095  13.766   0.935   5.172  0.2849  0.1374 -0.0775
 1233PNCE   C3B11096  13.753   1.161   5.543 -0.1417  0.2257  0.1830
 1233PNCE   D4B11097  13.691   1.111   5.906  0.0230 -0.1707  0.1473
 1233PNCE   C5B11098  13.949   1.038   6.237 -0.0807  0.0698  0.0435
 1233PNCE   C6B11099  14.364   0.716   6.237  0.1145  0.0925 -0.0179
 1234PNCE   AM111100   1.109   2.480   4.687 -0.1036  0.1382 -0.1847
 1234PNCE   AM211101   0.911   2.357   4.814 -0.0616  0.2035  0.3840
 1234PNCE   T1A11102   1.215   2.705   4.979 -0.0860 -0.1440 -0.0771
 1234PNCE   C2A11103   1.580   2.779   5.134 -0.0086 -0.1292 -0.0877
 1234PNCE   C3A11104   1.970   2.516   5.059 -0.0585  0.1256 -0.2043
 1234PNCE   C1B11105   0.877   2.411   5.237  0.1358  0.0185 -0.0458
 1234PNCE   C2B11106   0.932   2.570   5.737  0.0538 -0.0659 -0.1613
 1234PNCE   C3B11107   0.930   2.379   6.141  0.0255 -0.0164 -0.0701
 1234PNCE   D4B11108   0.746   2.212   6.489  0.3036  0.0785  0.2774
 1234PNCE   C5B11109   1.237   2.225   6.537  0.0801 -0.1659  0.0034
 1234PNCE   C6B11110   1.645   2.427   6.518  0.1136 -0.1595  0.0255
 1235PNCE   AM111111  14.852   6.363   5.155 -0.3175  0.0966 -0.1429
 1235PNCE   AM211112  14.649   6.573   5.000  0.2324 -0.0562  0.1269
 1235PNCE   T1A11113  14.789   6.473   5.505 -0.1661  0.0974 -0.3124
 1235PNCE   C2A11114  14.759   6.658   5.948  0.0370  0.3199  0.0262
 1235PNCE   C3A11115  14.788   6.694   6.400 -0.4033  0.1312 -0.0715
 1235PNCE   C1B11116  14.541   6.881   5.229  0.2805  0.3105 -0.1513
 1235PNCE   C2B11117  14.614   6.986   5.600  0.1961  0.1137  0.0635
 1235PNCE   C3B11118  14.831   7.160   5.882  0.0021  0.2209 -0.0571
 1235PNCE   D4B11119  14.852   7.574   6.041  0.0980 -0.1386  0.1080
 1235PNCE   C5B11120  14.934   7.764   6.451  0.0475  0.3208 -0.4571
 1235PNCE   C6B11121  15.172   7.871   6.766  0.0537  0.3861 -0.2907
 1236PNCE   AM111122   7.035   2.023   4.513  0.2981 -0.0770 -0.1659
 1236PNCE   AM211123   6.921   1.738   4.381 -0.0775 -0.0635 -0.2003
 1236PNCE   T1A11124   6.929   2.280   4.869 -0.2218  0.1066  0.0016
 1236PNCE   C2A11125   6.807   2.391   5.315 -0.0399  0.0416  0.1998
 1236PNCE   C3A11126   6.792   2.484   5.780  0.1209 -0.0534  0.0233
 1236PNCE   C1B11127   6.876   1.581   4.743  0.3895 -0.0083  0.1461
 1236PNCE   C2B11128   7.015   1.432   5.054 -0.1275 -0.0018 -0.0228
 1236PNCE   C3B11129   7.278   1.431   5.469 -0.0978  0.0994  0.0972
 1236PNCE   D4B11130   7.356   1.238   5.859  0.2072 -0.2173 -0.0376
 1236PNCE   C5B11131   7.092   0.903   6.096 -0.0392  0.0193  0.0583
 1236PNCE   C6B11132   6.650   0.709   6.193  0.1517  0.1631 -0.0537
 1237CHOL   ROH11133   7.847   5.552   5.040  0.0283  0.3969 -0.0145
 1237CHOL    R111134   7.921   5.537   5.313  0.0595  0.1814 -0.0336
 1237CHOL    R211135   7.815   5.707   5.504  0.1339  0.0717  0.0966
 1237CHOL    R311136   7.752   5.474   5.629  0.0860  0.0027 -0.0521
 1237CHOL    R411137   7.761   5.673   5.844  0.0844 -0.1116  0.0723
 1237CHOL    R511138   7.870   5.483   5.837  0.0650 -0.1290 -0.0263
 1237CHOL    C111139   7.670   5.434   6.159  0.0106 -0.2832 -0.0814
 1237CHOL    C211140   7.818   5.449   6.508  0.2293  0.0616  0.0834
 1238XCA    COO11141   2.184  11.590   8.862 -0.1494  0.0448  0.0938
 1238XCA     C111142   2.356  11.276   8.549  0.2763  0.1590 -0.0259
 1238XCA     C211143   2.465  11.093   8.149  0.2648  0.2287  0.1057
 1238XCA     C311144   2.825  10.988   7.879 -0.3004 -0.1042 -0.3709
 1238XCA     C411145   3.142  11.139   7.522  0.0929  0.1019 -0.1563
 1238XCA     C511146   3.437  11.105   7.147 -0.0041 -0.1965 -0.0975
 1238XCA     C611147   3.739  10.925   6.969 -0.1967  0.0622  0.2692
 1239XCA    COO11148  14.099   6.938   4.730 -0.0686 -0.2801  0.1222
 1239XCA     C111149  14.028   7.274   5.167 -0.2758 -0.1325  0.1746
 1239XCA     C211150  13.717   7.416   5.435 -0.0558 -0.0869 -0.0822
 1239XCA     C311151  13.472   7.480   5.772  0.2042 -0.1252 -0.0039
 1239XCA     C411152  13.250   7.211   6.101  0.1686  0.0086  0.3804
 1239XCA     C511153  12.849   7.122   6.112  0.0619  0.0419  0.2084
 1239XCA     C611154  12.519   7.044   6.507  0.1071  0.2270 -0.3730
 1240PNCE   AM111155   3.648  13.109   5.242  0.1869  0.1579 -0.1700
 1240PNCE   AM211156   3.438  13.155   4.979 -0.3574  0.2003 -0.0530
 1240PNCE   T1A11157   3.379  12.833   5.358  0.0601 -0.0280  0.1883
 1240PNCE   C2A11158   3.277  12.566   5.643  0.1225 -0.2109  0.3038
 1240PNCE   C3A11159   2.948  12.451   5.941  0.1780  0.1721  0.0560
 1240PNCE   C1B11160   3.334  13.528   5.255  0.0592 -0.0673  0.1253
 1240PNCE   C2B11161   3.240  13.735   5.659 -0.0802  0.1731  0.2147
 1240PNCE   C3B11162   3.220  13.759   6.153  0.3558 -0.1769 -0.1018
 1240PNCE   D4B11163   2.999  13.981   6.426  0.3108 -0.1780  0.0591
 1240PNCE   C5B11164   2.700  13.979   6.601  0.2688 -0.1937  0.1240
 1240PNCE   C6B11165   2.393  13.849   6.870 -0.0349  0.0641 -0.3978
 1241CHOL   ROH11166  12.293  11.277   4.536  0.1138 -0.0364 -0.0095
 1241CHOL    R111167  12.213  11.024   4.634  0.0398 -0.0375 -0.0706
 1241CHOL    R211168  12.283  10.931   4.885  0.0517 -0.1387 -0.1077
 1241CHOL    R311169  12.015  10.898   4.912  0.0441 -0.0469 -0.0728
 1241CHOL    R411170  12.133  10.730   5.122  0.0087 -0.0809 -0.0865
 1241CHOL    R511171  11.989  10.667   4.970 -0.0302 -0.0346 -0.0649
 1241CHOL    C111172  11.793  10.582   5.286 -0.0235  0.0389 -0.0414
 1241CHOL    C211173  11.629  10.338   5.433 -0.1890  0.0752 -0.0579
 1242PNCE   AM111174   8.418   7.209   5.073  0.0253  0.0438  0.0661
 1242PNCE   AM211175   8.416   7.585   5.086  0.1055  0.2395  0.1097
 1242PNCE   T1A11176   8.317   7.096   5.593 -0.1648 -0.1196  0.0729
 1242PNCE   C2A11177   8.114   7.214   5.948 -0.2223 -0.5763 -0.1666
 1242PNCE   C3A11178   7.903   7.208   6.394  0.2297  0.0140 -0.0704
 1242PNCE   C1B11179   8.374   7.641   5.543  0.0545  0.0122 -0.1546
 1242PNCE   C2B11180   8.303   7.768   5.965  0.0781  0.3678 -0.5153
 1242PNCE   C3B11181   8.274   7.965   6.336  0.3803  0.2896 -0.1108
 1242PNCE   D4B11182   8.336   8.253   6.529  0.0700  0.0088 -0.2602
 1242PNCE   C5B11183   8.685   8.350   6.931  0.4455 -0.2207  0.2442
 1242PNCE   C6B11184   9.016   8.160   7.047  0.3219  0.3999 -0.0174
 1243XCA    COO11185   3.770  11.893   4.575  0.0026  0.3786 -0.3523
 1243XCA     C111186   3.962  11.696   4.978  0.3730  0.0268 -0.2850
 1243XCA     C211187   3.809  11.900   5.345  0.1135 -0.4032 -0.2047
 1243XCA     C311188   4.001  11.993   5.730  0.0301  0.1045 -0.2943
 1243XCA     C411189   4.081  11.852   6.126 -0.0340  0.0765  0.0409
 1243XCA     C511190   3.963  11.765   6.531 -0.0207 -0.1939  0.0379
 1243XCA     C611191   4.096  11.841   6.921  0.1436  0.0043 -0.3267
 1244PNCE   AM111192   0.159   4.885   4.988 -0.0201 -0.1582 -0.0605
 1244PNCE   AM211193   0.175   5.158   4.995 -0.3062  0.0377  0.0594
 1244PNCE   T1A11194   0.234   4.825   5.396  0.2528  0.0668  0.0638
 1244PNCE   C2A11195   0.445   5.018   5.703  0.0962 -0.4091 -0.0282
 1244PNCE   C3A11196   0.874   5.072   5.836 -0.4010  0.2152  0.0664
 1244PNCE   C1B11197   0.098   5.384   5.450  0.0593  0.1302 -0.3451
 1244PNCE   C2B11198   0.130   5.410   5.873 -0.3041  0.0410  0.2989
 1244PNCE   C3B11199   0.372   5.241   6.194  0.1391  0.2079 -0.3052
 1244PNCE   D4B11200   0.545   5.087   6.622  0.0823 -0.0542  0.1050
 1244PNCE   C5B11201   0.912   5.232   6.707 -0.1707 -0.1411 -0.0438
 1244PNCE   C6B11202   1.294   5.096   6.807  0.1898  0.3090  0.3258
 1245PNCE   AM111203  12.325   2.526   5.241  0.0120 -0.1617  0.1267
 1245PNCE   AM211204  12.136   2.273   5.425  0.0198  0.2661 -0.1720
 1245PNCE   T1A11205  12.547   2.449   5.603  0.0047  0.1245 -0.0116
 1245PNCE   C2A11206  12.908   2.335   5.636  0.0228  0.2948 -0.0362
 1245PNCE   C3A11207  13.189   2.033   5.715 -0.0831 -0.0133 -0.1190
 1245PNCE   C1B11208  12.181   1.946   5.706  0.0859  0.0270 -0.0959
 1245PNCE   C2B11209  12.167   1.629   5.918  0.0329 -0.0794 -0.0194
 1245PNCE   C3B11210  12.090   1.314   6.219  0.2819  0.4687 -0.0974
 1245PNCE   D4B11211  11.901   1.074   6.466  0.2392 -0.0294  0.1589
 1245PNCE   C5B11212  11.943   0.746   6.671 -0.0388  0.0558  0.0910
 1245PNCE   C6B11213  11.814   0.416   7.013 -0.0868  0.0718  0.0113
 1246PNCE   AM111214  12.034  14.448   3.761  0.0539  0.1770 -0.4416
 1246PNCE   AM211215  11.822  14.263   3.790  0.2531  0.0969  0.0346
 1246PNCE   T1A11216  12.207  14.447   4.268  0.2484 -0.0254  0.0348
 1246PNCE   C2A11217  12.332  14.531   4.682 -0.0129 -0.1006 -0.0068
 1246PNCE   C3A11218  12.729  14.606   4.884  0.1724  0.0838  0.2476
 1246PNCE   C1B11219  11.757  14.587   4.137  0.0176 -0.2526  0.2698
 1246PNCE   C2B11220  11.792  14.431   4.615  0.2669 -0.0477 -0.1622
 1246PNCE   C3B11221  11.598  14.374   5.047  0.0991  0.1249  0.1823
 1246PNCE   D4B11222  11.525  14.295   5.386  0.2537  0.4154  0.0563
 1246PNCE   C5B11223  11.539  13.917   5.711 -0.3988 -0.3894 -0.0574
 1246PNCE   C6B11224  11.329  13.600   5.717  0.0067 -0.3914 -0.0185
 1247CHOL   ROH11225  13.067   2.825   8.518 -0.1396 -0.1280 -0.1923
 1247CHOL    R111226  13.173   2.700   8.286 -0.0821 -0.2319 -0.1116
 1247CHOL    R211227  13.055   2.479   8.170 -0.1774 -0.1557 -0.1665
 1247CHOL    R311228  13.059   2.634   7.947  0.0874 -0.1771 -0.1794
 1247CHOL    R411229  13.083   2.360   7.847 -0.2851 -0.2211 -0.1518
 1247CHOL    R511230  13.216   2.526   7.802 -0.0372 -0.4136 -0.1408
 1247CHOL    C111231  13.103   2.436   7.449 -0.0992 -0.2793 -0.1553
 1247CHOL    C211232  13.041   2.166   7.246 -0.4541 -0.1611  0.0824
 1248XCA    COO11233  12.243  14.669   8.392  0.0074  0.1454  0.0669
 1248XCA     C111234  12.102  14.704   7.950 -0.0367 -0.3702  0.2730
 1248XCA     C211235  12.193  14.986   7.542 -0.0015 -0.0672  0.1282
 1248XCA     C311236  12.186  15.048   7.098 -0.2870 -0.0299 -0.1192
 1248XCA     C411237  12.210  15.289   6.728  0.0957 -0.0334 -0.2752
 1248XCA     C511238  11.888  15.451   6.302  0.1813 -0.0027 -0.0213
 1248XCA     C611239  11.484  15.375   6.035 -0.0702  0.0298 -0.1022
 1249XCA    COO11240   3.171   1.397   4.724 -0.1256 -0.0998 -0.3720
 1249XCA     C111241   3.077   1.567   5.165 -0.0155 -0.3905  0.0318
 1249XCA     C211242   3.115   1.597   5.578 -0.0325 -0.0099 -0.1362
 1249XCA     C311243   3.318   1.835   5.849 -0.0286 -0.2707 -0.0912
 1249XCA     C411244   3.502   1.772   6.203 -0.0896 -0.0031  0.1799
 1249XCA     C511245   3.576   2.010   6.504 -0.1193  0.0316  0.1535
 1249XCA     C611246   3.858   2.215   6.874 -0.0096 -0.0045 -0.2338
 1250CHOL   ROH11247  11.868  11.950   7.739  0.0678  0.2394 -0.0650
 1250CHOL    R111248  12.019  11.826   7.534  0.0559  0.2254 -0.0663
 1250CHOL    R211249  12.031  11.927   7.276  0.0184  0.1941 -0.0852
 1250CHOL    R311250  12.299  11.917   7.320  0.0225  0.2251 -0.1080
 1250CHOL    R411251  12.272  11.951   7.031 -0.0008  0.0910 -0.1137
 1250CHOL    R511252  12.385  11.796   7.133  0.0130  0.1459 -0.0566
 1250CHOL    C111253  12.665  11.955   6.928 -0.0081  0.0600 -0.1518
 1250CHOL    C211254  12.584  12.077   6.587 -0.1008  0.1471  0.2756
 1251XCA    COO11255   3.641   7.441   9.677  0.0585 -0.1300  0.3334
 1251XCA     C111256   3.532   7.189   9.331  0.2383  0.0748 -0.1142
 1251XCA     C211257   3.396   7.110   8.996  0.1252  0.3157 -0.1096
 1251XCA     C311258   3.274   7.055   8.521 -0.3726  0.0091 -0.0009
 1251XCA     C411259   3.082   6.820   8.317 -0.3371 -0.0450 -0.3929
 1251XCA     C511260   3.280   6.629   8.086 -0.0535 -0.1563 -0.1417
 1251XCA     C611261   3.477   6.587   7.613 -0.0461 -0.0648  0.0628
 1252CHOL   ROH11262  11.149  14.784   8.025  0.0274  0.1913 -0.1983
 1252CHOL    R111263  11.201  14.771   7.747 -0.0280  0.2022 -0.2096
 1252CHOL    R211264  11.030  14.644   7.569 -0.0045  0.1025 -0.1654
 1252CHOL    R311265  11.038  14.884   7.442 -0.1569  0.1012 -0.1784
 1252CHOL    R411266  10.950  14.695   7.237  0.1928 -0.0051 -0.2312
 1252CHOL    R511267  11.117  14.833   7.222  0.0619  0.1663 -0.1150
 1252CHOL    C111268  10.910  14.950   6.924  0.1647 -0.0688 -0.2818
 1252CHOL    C211269  10.979  14.835   6.663 -0.3207  0.4865  0.0066
 1253CHOL   ROH11270  10.866  12.741   7.142  0.5939  0.2680 -0.1212
 1253CHOL    R111271  10.834  12.741   6.860  0.3106 -0.0725 -0.0964
 1253CHOL    R211272  10.715  12.531   6.725 -0.0052 -0.1616  0.2872
 1253CHOL    R311273  10.556  12.728   6.626  0.0586 -0.1536  0.2020
 1253CHOL    R411274  10.474  12.486   6.482 -0.1506 -0.2153  0.4402
 1253CHOL    R511275  10.535  12.676   6.393 -0.0871 -0.3271  0.2570
 1253CHOL    C111276  10.184  12.645   6.247 -0.1754 -0.2391  0.4494
 1253CHOL    C211277   9.978  12.704   5.972  0.2403 -0.3251 -0.2185
 1254XCA    COO11278   6.864   2.580   4.463  0.1311  0.1871  0.1983
 1254XCA     C111279   7.258   2.859   4.500  0.2234  0.0789 -0.0505
 1254XCA     C211280   7.336   3.282   4.712  0.0215 -0.2047 -0.1470
 1254XCA     C311281   7.285   3.542   5.167 -0.0654 -0.0128  0.2379
 1254XCA     C411282   7.137   3.832   5.466  0.0403 -0.3434 -0.0283
 1254XCA     C511283   7.267   3.907   5.960 -0.2371  0.0826 -0.1519
 1254XCA     C611284   7.293   3.756   6.377 -0.1076  0.0079  0.1470
 1255PNCE   AM111285  10.398   5.868   4.453  0.1385 -0.2366 -0.1755
 1255PNCE   AM211286  10.354   6.245   4.442  0.0400 -0.0832  0.3185
 1255PNCE   T1A11287  10.088   5.919   4.776  0.0120  0.1794  0.1513
 1255PNCE   C2A11288  10.056   5.719   5.206  0.2012  0.2209 -0.0180
 1255PNCE   C3A11289  10.119   5.474   5.621  0.0270  0.0593  0.4492
 1255PNCE   C1B11290  10.568   6.142   4.881 -0.1816 -0.0143 -0.0555
 1255PNCE   C2B11291  10.523   6.159   5.303  0.3595  0.3594 -0.0370
 1255PNCE   C3B11292  10.694   6.186   5.688  0.4277 -0.0735 -0.2985
 1255PNCE   D4B11293  10.907   5.912   5.962 -0.3441 -0.1602 -0.0094
 1255PNCE   C5B11294  11.255   5.926   6.140  0.0812 -0.1017 -0.1507
 1255PNCE   C6B11295  11.362   5.826   6.604  0.1221  0.1289  0.0154
 1256CHOL   ROH11296   5.439   1.746   4.711 -0.1204  0.2298 -0.1523
 1256CHOL    R111297   5.535   1.681   4.969 -0.1373 -0.0685 -0.2211
 1256CHOL    R211298   5.522   1.856   5.182  0.1619 -0.1912 -0.1133
 1256CHOL    R311299   5.394   1.649   5.303 -0.0829 -0.0960 -0.1961
 1256CHOL    R411300   5.543   1.780   5.518  0.1163 -0.3454 -0.1426
 1256CHOL    R511301   5.551   1.569   5.465 -0.1431 -0.3507 -0.2414
 1256CHOL    C111302   5.436   1.541   5.828 -0.1400 -0.3458 -0.2375
 1256CHOL    C211303   5.513   1.452   6.191  0.0363  0.0358  0.2271
 1257XCA    COO11304   3.540  11.037   4.851 -0.3366 -0.0189 -0.0883
 1257XCA     C111305   3.533  11.159   5.257  0.0022  0.1023 -0.2012
 1257XCA     C211306   3.255  11.051   5.662 -0.4222  0.0637  0.0512
 1257XCA     C311307   3.121  11.181   6.102 -0.1022  0.2496 -0.0472
 1257XCA     C411308   3.018  11.219   6.525 -0.2542 -0.2704 -0.0028
 1257XCA     C511309   2.746  11.207   6.962  0.0059  0.1249  0.3025
 1257XCA     C611310   2.606  11.325   7.370  0.1455 -0.5148  0.2668
 1258PNCE   AM111311   3.837   1.259   4.299 -0.0065  0.3891  0.0392
 1258PNCE   AM211312   3.695   1.351   4.602  0.2262 -0.2343 -0.0535
 1258PNCE   T1A11313   3.928   0.807   4.569  0.0405  0.0455  0.0675
 1258PNCE   C2A11314   3.949   0.351   4.708 -0.3134  0.2290  0.1264
 1258PNCE   C3A11315   3.880  -0.008   4.857  0.1469  0.0467 -0.0197
 1258PNCE   C1B11316   3.570   1.476   5.057  0.2763 -0.3458  0.2912
 1258PNCE   C2B11317   3.452   1.243   5.437 -0.2685  0.2769 -0.1522
 1258PNCE   C3B11318   3.477   0.945   5.724  0.1732 -0.1392 -0.2323
 1258PNCE   D4B11319   3.806   0.761   5.933  0.2300 -0.0342 -0.1917
 1258PNCE   C5B11320   3.961   1.177   6.187 -0.2130 -0.0101  0.0583
 1258PNCE   C6B11321   3.791   1.435   6.470  0.0603  0.4039  0.1160
 1259CHOL   ROH11322  15.746   1.648   7.506 -0.1618 -0.0052  0.0831
 1259CHOL    R111323  15.464   1.634   7.527 -0.1627 -0.1372  0.0074
 1259CHOL    R211324  15.312   1.844   7.622 -0.2686 -0.2856  0.1878
 1259CHOL    R311325  15.179   1.812   7.387 -0.1954 -0.1037  0.1205
 1259CHOL    R411326  14.996   1.968   7.555 -0.0725  0.1390  0.0111
 1259CHOL    R511327  14.950   1.782   7.452 -0.2721  0.2054 -0.0076
 1259CHOL    C111328  14.688   2.010   7.296  0.1103  0.5569 -0.1549
 1259CHOL    C211329  14.314   2.200   7.292 -0.2588  0.1689 -0.0632
 1260XCA    COO11330   8.120   1.134   8.318  0.1595  0.2410 -0.0875
 1260XCA     C111331   8.283   1.391   7.953  0.1506  0.1340 -0.1200
 1260XCA     C211332   8.334   1.429   7.568 -0.0556  0.1069 -0.0505
 1260XCA     C311333   8.243   1.769   7.226  0.3241 -0.0042 -0.1368
 1260XCA     C411334   8.218   2.056   6.876 -0.1029 -0.0606 -0.0562
 1260XCA     C511335   8.540   2.191   6.693  0.1165  0.0389 -0.2644
 1260XCA     C611336   8.902   1.990   6.357 -0.2961 -0.3374  0.4897
 1261XCA    COO11337  13.180   3.450   8.315 -0.0312 -0.2019 -0.0817
 1261XCA     C111338  13.403   3.447   7.860  0.0037  0.1886 -0.0306
 1261XCA     C211339  13.494   3.193   7.435 -0.0634  0.1613 -0.4999
 1261XCA     C311340  13.768   3.000   7.193  0.3576  0.0443  0.0983
 1261XCA     C411341  13.979   2.706   7.114 -0.0128 -0.3916 -0.2799
 1261XCA     C511342  14.359   2.699   7.322  0.0713  0.0747 -0.0608
 1261XCA     C611343  14.489   2.663   7.785  0.1289 -0.1479 -0.1939
 1262PNCE   AM111344   1.249  13.849   4.303 -0.2895 -0.1221  0.1614
 1262PNCE   AM211345   1.528  13.875   4.140 -0.0705 -0.0251 -0.1049
 1262PNCE   T1A11346   1.000  14.148   4.527 -0.1275 -0.0176  0.2448
 1262PNCE   C2A11347   0.981  14.427   4.889  0.1712 -0.1514 -0.0518
 1262PNCE   C3A11348   0.799  14.653   5.244  0.1204  0.0809 -0.0595
 1262PNCE   C1B11349   1.472  14.281   4.388 -0.0253  0.1048 -0.0484
 1262PNCE   C2B11350   1.567  14.444   4.829  0.1191  0.2040 -0.2363
 1262PNCE   C3B11351   1.909  14.691   5.055  0.0496 -0.0527 -0.0411
 1262PNCE   D4B11352   2.194  14.675   5.442  0.1448  0.0585 -0.0096
 1262PNCE   C5B11353   1.886  14.608   5.766 -0.1425  0.0873 -0.1445
 1262PNCE   C6B11354   1.949  14.673   6.148 -0.0447  0.0793 -0.2154
 1263XCA    COO11355   4.527   9.784   5.301  0.2247  0.1981  0.0673
 1263XCA     C111356   4.490  10.117   5.601  0.1406  0.0617  0.1428
 1263XCA     C211357   4.210  10.040   5.915  0.2268  0.2654 -0.3310
 1263XCA     C311358   4.268   9.927   6.285 -0.2966 -0.0293  0.1441
 1263XCA     C411359   4.742   9.928   6.424  0.1055  0.3113  0.2645
 1263XCA     C511360   4.978  10.202   6.728 -0.4494  0.1877 -0.1793
 1263XCA     C611361   4.916  10.331   7.099  0.4701  0.0756  0.4390
 1264XCA    COO11362  10.885   0.450   4.148 -0.0884 -0.0733 -0.1419
 1264XCA     C111363  10.926   0.664   4.571  0.2380 -0.1228  0.1979
 1264XCA     C211364  11.128   0.644   5.059  0.0215  0.2209  0.0762
 1264XCA     C311365  11.423   0.587   5.327 -0.2868  0.2852 -0.1960
 1264XCA     C411366  11.447   0.820   5.724 -0.1843  0.0830  0.0322
 1264XCA     C511367  11.253   0.808   6.138  0.0583  0.2627 -0.0170
 1264XCA     C611368  11.048   0.639   6.496  0.1851 -0.0570 -0.0436
 1265WN      WN11369   2.916   5.685   2.177  0.0996 -0.0303  0.2797
 1266WN      WN11370   4.873   7.837   4.671 -0.1410  0.2550 -0.2654
 1267WN      WN11371   8.479  12.770  11.521  0.0524  0.0587  0.3174
 1268WN      WN11372  14.759  11.143  13.375 -0.0929  0.4114 -0.0718
 1269WN      WN11373  12.972  10.277   4.048  0.3622  0.0800 -0.0976
 1270WN      WN11374   7.898  14.168   1.942  0.2418  0.0554 -0.1556
 1271WN      WN11375  13.326   1.419   1.045  0.1707  0.0158 -0.0513
 1272WN      WN11376   6.123   5.758   9.717 -0.0024 -0.0332  0.0220
 1273WN      WN11377   7.212  14.580   0.242  0.1640 -0.0315  0.0911
 1274WN      WN11378   9.811   2.127  10.569  0.0805  0.1053 -0.2579
 1275WN      WN11379   5.107  13.605   3.960 -0.0982 -0.1969 -0.1750
 1276WN      WN11380  14.402  14.280   0.071  0.1312 -0.1390 -0.1038
 1277WN      WN11381   1.719   6.836   9.802  0.0868 -0.0218 -0.3890
 1278WN      WN11382   8.483   2.485   2.068 -0.0993  0.1367  0.0452
 1279WN      WN11383   2.565   2.660  12.127 -0.1357  0.1599 -0.4311
 1280WN      WN11384  12.530   1.694   8.854  0.2226 -0.0769 -0.0394
 1281WN      WN11385   9.950   8.692  12.247  0.3452  0.3305  0.0431
 1282WN      WN11386  14.746  14.745  10.363 -0.1455  0.0443 -0.0896
 1283WN      WN11387  13.487   7.821   4.896 -0.3503 -0.0242 -0.0632
 1284WN      WN11388   1.777   8.242   2.000 -0.1658 -0.0933 -0.1428
 1285WN      WN11389   0.205  14.633   9.878  0.0503  0.1051  0.2510
 1286WN      WN11390   1.933   0.550  10.400  0.1954 -0.2360  0.0601
 1287WN      WN11391   2.383  15.509   2.341 -0.0349  0.0927 -0.2176
 1288WN      WN11392   4.137  13.187   9.457 -0.1409 -0.1488 -0.0969
 1289WN      WN11393  11.291  14.800  10.496  0.0727  0.0549  0.0971
 1290WN      WN11394  15.760   3.231   4.719 -0.0639 -0.0855 -0.0416
 1291WN      WN11395   8.917   6.628   2.182  0.1448  0.1937  0.0090
 1292WN      WN11396   8.970   4.368  11.865 -0.0926  0.2924 -0.3264
 1293WN      WN11397   6.848   2.745  13.267 -0.0243  0.1583  0.2590
 1294WN      WN11398   4.714  10.161  11.353  0.2297  0.0687  0.0420
 1295WN      WN11399  12.508  11.935   9.457  0.1002  0.2185  0.0155
 1296WN      WN11400  10.862  15.755   1.934 -0.2559  0.0204 -0.0766
 1297WN      WN11401   9.304   3.910  11.980 -0.1750 -0.2595  0.3225
 1298WN      WN11402   5.768   2.615   2.084 -0.0370 -0.2023 -0.1535
 1299WN      WN11403  13.650   3.206   1.905 -0.0311 -0.0927  0.2290
 1300WN      WN11404  12.465   5.067   0.254 -0.0172  0.1141 -0.1106
 1301WN      WN11405   0.405  12.351   3.962  0.0306 -0.0010 -0.1909
 1302WN      WN11406   8.028   0.007  12.951 -0.0279  0.0509 -0.1206
 1303WN      WN11407   5.428   0.647   1.541 -0.0364  0.1059 -0.1282
 1304WN      WN11408   9.511  15.262   9.823  0.3687  0.1572 -0.1558
 1305WN      WN11409   9.323   9.605  11.683  0.1675 -0.3329 -0.0156
 1306WN      WN11410   4.587  10.384   9.405  0.3027 -0.3345  0.0692
 1307WN      WN11411   0.200   1.051  11.395 -0.1050  0.0672 -0.0683
 1308WN      WN11412   5.552   6.410  12.684  0.1181  0.0506 -0.0725
 1309WN      WN11413   2.128   1.062   1.399 -0.0296  0.2642 -0.3792
 1310WN      WN11414   8.374  14.353   3.232 -0.0059 -0.0297 -0.2154
 1311WN      WN11415   8.659  11.807   3.626 -0.1793  0.0003  0.3051
 1312WN      WN11416   1.346   4.939   0.921  0.1535 -0.2461 -0.1785
 1313WN      WN11417   9.525  14.698  11.317 -0.0183  0.1057  0.3690
 1314WN      WN11418  11.175   1.998  12.262 -0.0505  0.1857  0.2132
 1315WN      WN11419   2.578  10.641   9.324 -0.3134 -0.3128  0.2378
 1316WN      WN11420   8.327  11.990  13.316 -0.1912  0.0600 -0.0676
 1317WN      WN11421   9.844   2.998  13.126  0.1673 -0.1097  0.1451
 1318WN      WN11422   4.197   2.069  11.719 -0.1185 -0.1078 -0.3671
 1319WN      WN11423   9.074   7.908   4.749 -0.2897  0.3010  0.1785
 1320WN      WN11424  15.165   4.280   2.292  0.2116  0.0551  0.0446
 1321WN      WN11425   4.930  10.113   4.843  0.0593  0.0887  0.0098
 1322WN      WN11426   3.155   2.819   0.413 -0.2347  0.0091 -0.0220
 1323WN      WN11427   0.299  12.441   9.783  0.0104  0.0721 -0.0358
 1324WN      WN11428  10.411  11.520  12.255  0.2151  0.2902  0.3522
 1325WN      WN11429  15.061   9.179   2.076 -0.2062  0.0363  0.2295
 1326WN      WN11430   5.302  13.997  11.783 -0.1822  0.0871  0.2244
 1327WN      WN11431   1.310  11.132   0.688  0.3199 -0.0574  0.0794
 1328WN      WN11432   8.849   5.091  11.150  0.0602 -0.0623  0.0001
 1329WN      WN11433  15.310   8.364  13.205 -0.0553  0.1286 -0.0599
 1330WN      WN11434   7.458   0.889  11.625 -0.2256 -0.2016  0.1400
 1331WN      WN11435  11.427   0.615   9.468  0.1071  0.0349 -0.0934
 1332WN      WN11436   3.237  14.292  10.872 -0.1335  0.0406  0.2753
 1333WN      WN11437  13.004  15.164   1.382  0.0467  0.1694  0.3147
 1334WN      WN11438  13.613   4.976   1.488 -0.0010  0.3451  0.0347
 1335WN      WN11439   4.041  12.964   3.029 -0.1279  0.0034  0.0570
 1336WN      WN11440   0.173  13.023   2.018  0.1339  0.1131  0.0177
 1337WN      WN11441  10.776  12.850   0.661 -0.1134 -0.1199  0.0539
 1338WN      WN11442  14.976   4.304  11.552  0.1369  0.0381 -0.1474
 1339WN      WN11443   7.899  11.994  12.168  0.2956  0.0061  0.1810
 1340WN      WN11444  11.111   3.699   8.802 -0.0378 -0.0216  0.1518
 1341WN      WN11445  13.518  14.420   9.790 -0.2063 -0.0870  0.1723
 1342WN      WN11446   2.453   4.986   1.663  0.1141  0.0733  0.0706
 1343WN      WN11447  14.823  10.544   9.618 -0.2368  0.1648  0.0564
 1344WN      WN11448  13.815  15.143  11.564 -0.1588 -0.1128  0.2631
 1345WN      WN11449   6.504   2.578  10.886 -0.1520 -0.0631  0.0009
 1346WN      WN11450  12.309   6.989  11.729  0.1231 -0.3398 -0.4923
 1347WN      WN11451   5.847   8.473  11.904  0.1358  0.1751  0.0081
 1348WN      WN11452  12.694   0.387   3.046  0.5178  0.0291  0.2662
 1349WN      WN11453  12.976  13.039   9.150  0.0836 -0.0320  0.2809
 1350WN      WN11454  11.192   6.220   9.019  0.2262 -0.3062  0.1019
 1351WN      WN11455   7.445  12.982  12.759 -0.2644 -0.4453  0.2067
 1352WN      WN11456   1.208  13.856   0.811  0.0342  0.2692 -0.1280
 1353WN      WN11457   2.365   9.455   4.938  0.2388  0.1647 -0.0099
 1354WN      WN11458  15.786   6.302  10.790 -0.0331 -0.1547  0.1922
 1355WN      WN11459  13.952  15.441  11.186 -0.0223  0.1237 -0.2636
 1356WN      WN11460   0.258   3.702  12.874 -0.1973 -0.0388  0.0983
 1357WN      WN11461   7.506   9.802  11.000 -0.1963 -0.0605 -0.1068
 1358WN      WN11462   6.182   5.661   0.949  0.2125  0.1122 -0.0829
 1359WN      WN11463   8.185  14.769  12.423 -0.2958  0.2206 -0.1478
 1360WN      WN11464   5.089  10.037   0.743  0.1602 -0.0532 -0.3338
 1361WN      WN11465  13.313   1.166   2.527 -0.2112  0.1743 -0.1935
 1362WN      WN11466  15.683   1.597   3.541  0.2620  0.5316  0.1369
 1363WN      WN11467   8.565   5.691   4.579  0.0892  0.1495  0.3444
 1364WN      WN11468   3.821  11.616  13.176 -0.0374  0.0297 -0.1801
 1365WN      WN11469   0.594   2.490  10.885  0.1957  0.1841  0.2305
 1366WN      WN11470  11.503   8.013   3.862  0.2488 -0.1094  0.2183
 1367WN      WN11471  12.955  12.487  13.389  0.0245  0.0389  0.0744
 1368WN      WN11472  12.405  12.592   3.641 -0.1027  0.0629 -0.2519
 1369WN      WN11473   1.973  12.754  10.592 -0.0749 -0.1663  0.0911
 1370WN      WN11474   6.922   0.046   8.675  0.3119 -0.0290  0.0499
 1371WN      WN11475  13.710  11.631   0.166 -0.1058  0.0398 -0.0671
 1372WN      WN11476   0.995   2.757  10.786  0.2255  0.3230  0.0441
 1373WN      WN11477   7.129  12.568   2.962 -0.1540 -0.1899  0.1089
 1374WN      WN11478  13.665   2.059  10.961 -0.0340  0.0240  0.0505
 1375WN      WN11479   4.783   2.202  11.757  0.0008  0.0260  0.0464
 1376WN      WN11480   3.494   3.976  12.900  0.3704  0.1651  0.1198
 1377WN      WN11481  11.243   9.448   1.493 -0.1773  0.0474 -0.0720
 1378WN      WN11482   2.750   1.415   3.128 -0.2850 -0.1189  0.1612
 1379WN      WN11483   8.749   6.660   2.683 -0.0329  0.2643 -0.0510
 1380WN      WN11484   1.239   7.655   0.941  0.1404 -0.0672  0.1854
 1381WN      WN11485   2.751  10.986   1.116 -0.0212  0.1256  0.1343
 1382WN      WN11486  11.372  11.688   0.365  0.1165  0.1663 -0.1827
 1383WN      WN11487   1.036   8.906   9.928  0.1347  0.0294 -0.1036
 1384WN      WN11488  15.160   4.726   4.464 -0.1624 -0.1719 -0.2541
 1385WN      WN11489  10.154  11.300   3.936  0.1524 -0.0728 -0.2275
 1386WN      WN11490   0.806   8.789   2.044 -0.2183 -0.0236  0.0238
 1387WN      WN11491   4.855   6.938  11.026 -0.1504  0.1562  0.1676
 1388WN      WN11492  11.921  14.871   2.453  0.0615 -0.0996  0.0354
 1389WN      WN11493  12.060   7.826   1.972 -0.2032 -0.0498  0.0061
 1390WN      WN11494  15.255  15.647   1.959 -0.4129  0.0495  0.1216
 1391WN      WN11495   8.870  14.337  13.254 -0.0622 -0.2041 -0.0401
 1392WN      WN11496   6.705   5.653  10.647  0.0272 -0.1333  0.2264
 1393WN      WN11497  15.002   9.132  12.122 -0.2129 -0.1434 -0.1670
 1394WN      WN11498   7.365  11.651   8.796  0.0218  0.1660  0.0377
 1395WN      WN11499  10.131  13.196  10.643 -0.1438  0.2508 -0.2829
 1396WN      WN11500  10.275   1.302   1.058 -0.2007  0.0154 -0.0775
 1397WN      WN11501   5.403  13.049  12.906  0.0679 -0.0171  0.0581
 1398WN      WN11502   7.472  12.961   2.061  0.4253  0.0953 -0.0003
 1399WN      WN11503   9.337  14.482   0.987 -0.1271 -0.2454  0.0847
 1400WN      WN11504   3.701   6.221  10.141  0.1766 -0.0488 -0.0121
 1401WN      WN11505   8.731   9.316   9.426 -0.1881 -0.2095  0.0201
 1402WN      WN11506   4.455  10.336   9.883 -0.1945  0.0588 -0.2267
 1403WN      WN11507   5.235   7.347  12.727 -0.1714 -0.1797  0.0278
 1404WN      WN11508  11.390  12.615   9.969 -0.2668  0.3119  0.2085
 1405WN      WN11509   0.475  14.816   3.735 -0.0680 -0.0766  0.2652
 1406WN      WN11510   0.651  15.788  11.261  0.2461  0.1861 -0.0927
 1407WN      WN11511   7.456   0.968  12.106 -0.0988 -0.0701  0.0448
 1408WN      WN11512  15.379   1.647  11.929 -0.0606 -0.1000 -0.2177
 1409WN      WN11513   4.598   7.964  10.693 -0.0098 -0.2119  0.1535
 1410WN      WN11514   2.965   7.959   2.031 -0.1270 -0.2328 -0.0199
 1411WN      WN11515   2.492  10.512  13.171  0.1691 -0.0201  0.0674
 1412WN      WN11516   6.909   6.406   4.373  0.2650 -0.2695  0.0034
 1413WN      WN11517  14.209   4.171  10.646 -0.0123 -0.2524  0.1592
 1414WN      WN11518  11.816  11.746   0.865  0.1375 -0.3047 -0.0289
 1415WN      WN11519   1.545  15.753   2.875  0.2207  0.1137 -0.0711
 1416WN      WN11520   9.407   0.340   2.182  0.1407  0.0790 -0.4257
 1417WN      WN11521   2.887   1.422   2.022 -0.0079  0.0818 -0.0547
 1418WN      WN11522   7.511   7.237   3.078  0.1030 -0.1857 -0.0398
 1419WN      WN11523  12.783   8.510   0.757 -0.0549  0.0963 -0.0313
 1420WN      WN11524  11.896   8.211   0.720  0.2042  0.3676  0.0214
 1421WN      WN11525  14.265  11.341   1.332  0.0366  0.1897  0.0757
 1422WN      WN11526   7.284   1.537  13.401  0.3017 -0.0180 -0.1713
 1423WN      WN11527   6.494   0.623  10.361  0.2226  0.4318 -0.2006
 1424WN      WN11528   6.315  10.624   0.487  0.0852 -0.0621 -0.1223
 1425WN      WN11529  13.265   6.651   0.391  0.0861  0.0649  0.2729
 1426WN      WN11530   7.232   3.320  10.507 -0.1722 -0.1398  0.1950
 1427WN      WN11531   2.551   7.866  10.622 -0.2489 -0.1495  0.3657
 1428WN      WN11532  14.735   0.044   0.798 -0.2472  0.2645 -0.0292
 1429WN      WN11533   3.677   6.893  13.152  0.1032  0.5668  0.0165
 1430WN      WN11534  11.442  15.022  11.798  0.1342 -0.1629  0.2854
 1431WN      WN11535   8.132   7.633   9.780 -0.1346 -0.0282  0.1270
 1432WN      WN11536  10.645  12.079  11.340  0.2205 -0.0270 -0.1807
 1433WN      WN11537  11.507   5.714  12.467  0.1226  0.1754  0.2943
 1434WN      WN11538   1.779   0.765  10.892 -0.1419 -0.2655 -0.0230
 1435WN      WN11539  10.207   3.836   2.893 -0.1855 -0.3872 -0.2741
 1436WN      WN11540   3.360   2.962  12.777 -0.0637  0.0629  0.0655
 1437WN      WN11541   4.626  14.004   2.800  0.0977 -0.0219  0.0515
 1438WN      WN11542   7.929  10.148   3.312 -0.0524  0.4160  0.4341
 1439WN      WN11543   1.362  15.733   8.625 -0.0342  0.1400 -0.0746
 1440WN      WN11544  14.618   5.544  12.418  0.3675  0.1872 -0.1547
 1441WN      WN11545   4.119  14.687   9.689 -0.3315  0.0211 -0.1170
 1442WN      WN11546   1.458   8.076   5.894 -0.1489  0.3054  0.0173
 1443WN      WN11547   7.544   2.840   3.386  0.0312  0.0131  0.0786
 1444WN      WN11548   9.086   8.749  12.648 -0.2211  0.1711 -0.3936
 1445WN      WN11549  14.771   6.854  11.994 -0.0974  0.5073 -0.0760
 1446WN      WN11550  10.301   6.114   8.828  0.0004 -0.3604 -0.0525
 1447WN      WN11551   7.890  15.054  11.322  0.0883 -0.2238  0.2483
 1448WN      WN11552  11.673  13.064   8.983  0.0869  0.4940  0.0194
 1449WN      WN11553   9.027  14.214   4.064  0.0616 -0.1163 -0.3048
 1450WN      WN11554   4.596  14.709   9.473  0.0074 -0.1489  0.1371
 1451WN      WN11555   0.702  12.273  10.430  0.1461  0.1164 -0.0470
 1452WN      WN11556   7.228  14.990   2.837 -0.3218 -0.2116 -0.3268
 1453WN      WN11557  12.669  12.222  11.701 -0.0107  0.2484 -0.3080
 1454WN      WN11558   1.375   6.708  10.178 -0.3509  0.3793  0.0493
 1455WN      WN11559  14.160   8.933   1.093 -0.2036  0.3490 -0.1351
 1456WN      WN11560   6.905  13.234  11.720 -0.0065  0.2052 -0.0634
 1457WN      WN11561  12.612   2.189   3.518 -0.2005 -0.1155  0.0424
 1458WN      WN11562   6.530   6.936  11.694 -0.1121 -0.2731 -0.0756
 1459WN      WN11563   0.151   3.311   1.643 -0.1353  0.0335  0.0444
 1460WN      WN11564   9.975  13.625   2.097 -0.1784 -0.1798  0.4651
 1461WN      WN11565  14.331  14.822   1.252  0.0973 -0.1894  0.1004
 1462WN      WN11566   9.081   9.217   9.882 -0.0779  0.1434  0.1301
 1463WN      WN11567  12.459   8.828   4.308 -0.0233 -0.0420 -0.1247
 1464WN      WN11568   8.846   2.254  13.357 -0.2127  0.0945 -0.2654
 1465WN      WN11569  11.691   9.116   2.389 -0.1935 -0.2152  0.0982
 1466WN      WN11570   5.523  12.191   2.851 -0.2353  0.1657 -0.1366
 1467WN      WN11571   1.906   4.164  12.053 -0.0380 -0.3759 -0.2203
 1468WN      WN11572   2.673  12.166  13.143 -0.0907 -0.1722 -0.1763
 1469WN      WN11573  11.322  12.606  12.779  0.0401  0.0058 -0.0055
 1470WN      WN11574  12.894  11.113   0.514 -0.3071  0.1130  0.0985
 1471WN      WN11575   7.864  10.641   3.110  0.0468 -0.0073  0.0199
 1472WN      WN11576  11.533   9.922   8.691 -0.2386 -0.0673  0.0783
 1473WN      WN11577   8.094  10.907   1.983  0.1030  0.2028  0.1219
 1474WN      WN11578   2.024   8.760  11.273 -0.2193  0.2929 -0.3876
 1475WN      WN11579   8.030   6.920   5.095  0.2834  0.1977  0.1735
 1476WN      WN11580   0.086   5.945  10.206 -0.0769  0.1424  0.0323
 1477WN      WN11581   9.765   2.628   3.018 -0.0973  0.1243  0.2017
 1478WN      WN11582   3.427  11.533  12.875 -0.2468  0.1294  0.1224
 1479WN      WN11583   7.237   1.271   2.921 -0.2113 -0.2246 -0.0721
 1480WN      WN11584  12.908  10.712  12.543  0.1216  0.1266 -0.0618
 1481WN      WN11585  11.416  12.942   1.206 -0.0444 -0.2235  0.2051
 1482WN      WN11586  12.563  15.010   1.750  0.0260 -0.1494  0.0873
 1483WN      WN11587   3.054   1.467   9.370  0.6062  0.0541  0.1514
 1484WN      WN11588   1.370   2.659   1.938  0.0339 -0.0033 -0.0471
 1485WN      WN11589   7.782   0.072  12.340 -0.2843 -0.0222  0.0841
 1486WN      WN11590   2.161  14.850   3.171  0.1168  0.1877 -0.1640
 1487WN      WN11591  14.380  12.042   9.018  0.5337 -0.3148  0.2554
 1488WN      WN11592   4.509  13.403  13.218 -0.3113 -0.0023  0.0116
 1489WN      WN11593   0.954  14.802   4.141 -0.0033  0.0892 -0.0026
 1490WN      WN11594  12.744   9.929   2.274 -0.2217  0.0035  0.0303
 1491WN      WN11595   7.037   7.964   4.492  0.2282  0.0807  0.0336
 1492WN      WN11596  14.602   4.424  10.984  0.4129  0.1510  0.0145
 1493WN      WN11597   5.445   8.901  10.884 -0.2425  0.1618  0.0754
 1494WN      WN11598   5.738   8.978   1.776  0.1727  0.5486  0.4026
 1495WN      WN11599   2.601  15.102   0.861  0.0415 -0.0951  0.0808
 1496WN      WN11600  10.533  11.054   2.276 -0.0060  0.3689  0.1503
 1497WN      WN11601  15.137   7.494  13.162 -0.0489  0.0118 -0.1130
 1498WN      WN11602  11.667  12.507   1.161 -0.1319  0.4074  0.1252
 1499WN      WN11603   3.146   3.533   2.777  0.0740  0.2420  0.0327
 1500WN      WN11604   3.619  14.326  13.007 -0.0418  0.3255 -0.0814
 1501WN      WN11605   1.611  12.971   1.069 -0.1722 -0.1406 -0.0841
 1502WN      WN11606   1.662   5.881  10.222 -0.1998  0.1476  0.0756
 1503WN      WN11607  10.457   9.713   9.466  0.2761 -0.0780  0.1517
 1504WN      WN11608   5.926  10.291   0.442 -0.2925  0.2909 -0.1973
 1505WN      WN11609  10.566   7.936  13.206 -0.1921  0.1958 -0.2586
 1506WN      WN11610   0.167   8.703   4.587  0.2381 -0.0903  0.1138
 1507WN      WN11611  13.557   8.169  10.505  0.1226 -0.6292 -0.1525
 1508WN      WN11612   0.802   3.194   3.085  0.0774 -0.0746  0.1029
 1509WN      WN11613  15.335   9.229   3.199 -0.3203  0.0792 -0.1835
 1510WN      WN11614   2.624   9.038  11.552 -0.0449  0.4128  0.0710
 1511WN      WN11615   6.847   6.914  11.225  0.0023  0.0359  0.1426
 1512WN      WN11616  11.363  13.773   2.159 -0.0600 -0.0028 -0.0608
 1513WN      WN11617  10.526   8.796  12.260  0.0243  0.0526 -0.1947
 1514WN      WN11618   3.178   1.706   4.340  0.1439 -0.1002  0.0594
 1515WN      WN11619  13.618  11.405  10.528  0.1247  0.0488 -0.0686
 1516WN      WN11620   6.495   5.831  12.792 -0.1727 -0.4321 -0.1166
 1517WN      WN11621   1.117  12.411   0.307 -0.1266  0.0914  0.2202
 1518WN      WN11622   0.880   7.367   4.893 -0.2609  0.1992 -0.0552
 1519WN      WN11623   6.034   1.614   3.137  0.1112  0.3675 -0.1349
 1520WN      WN11624  14.868   7.587   3.376  0.1917 -0.1673 -0.1533
 1521WN      WN11625   9.278  12.425   8.966  0.0606 -0.2440  0.1989
 1522WN      WN11626   6.605   6.881  10.153  0.4286 -0.1584  0.2507
 1523WN      WN11627   9.286  11.600  11.032 -0.4976 -0.1531 -0.0045
 1524WN      WN11628   2.849   8.549   2.885  0.0321  0.1223 -0.1753
 1525WN      WN11629   9.054   1.451  12.589 -0.1007  0.0576  0.4386
 1526WN      WN11630   9.379   4.498  12.279  0.0547  0.3546  0.0379
 1527WN      WN11631  13.782   4.758   8.910  0.0918 -0.1076 -0.1443
 1528WN      WN11632  15.562   0.861  11.687  0.0601  0.2584  0.0423
 1529WN      WN11633   5.030   4.223   9.195  0.2054 -0.1854 -0.0662
 1530WN      WN11634  12.300  14.111  11.897 -0.3124  0.1891 -0.2307
 1531WN      WN11635   4.059  12.224  10.132 -0.0922 -0.4043  0.0933
 1532WN      WN11636   8.219  12.403   1.745  0.0673  0.2285  0.0076
 1533WN      WN11637  15.238  12.462  11.421  0.0317  0.1396  0.0683
 1534WN      WN11638   2.906  11.216   2.560  0.2136  0.0176 -0.1304
 1535WN      WN11639   0.469   3.951   3.300 -0.1964  0.0160  0.1357
 1536WN      WN11640   0.281   0.858   3.231 -0.0085 -0.1341  0.2582
 1537WN      WN11641  14.812   1.180   9.261 -0.1729 -0.0409 -0.2314
 1538WN      WN11642   3.967  13.701   0.382 -0.2323 -0.2266  0.0243
 1539WN      WN11643   5.099   8.845  10.474  0.0595 -0.0169 -0.0509
 1540WN      WN11644  12.991   8.154   0.204  0.2134 -0.1798  0.1651
 1541WN      WN11645  13.493   8.527   8.747 -0.2232  0.1162 -0.1039
 1542WN      WN11646  11.315  15.250   1.565  0.0375 -0.2622 -0.0198
 1543WN      WN11647  14.775   2.851  11.392  0.2018  0.2657 -0.0771
 1544WN      WN11648   7.580   3.912   9.651 -0.0246 -0.4985  0.2565
 1545WN      WN11649   3.515   3.816   4.264 -0.0181  0.0239 -0.2659
 1546WN      WN11650   0.983   0.372  10.091  0.2932 -0.0994  0.2700
 1547WN      WN11651   9.159   6.498   4.373  0.2168 -0.0912 -0.0023
 1548WN      WN11652   4.246   5.740  12.159  0.0574  0.2318  0.1710
 1549WN      WN11653  10.015   1.730   4.006  0.0021  0.1031 -0.0626
 1550WN      WN11654   1.014  11.422   3.272 -0.1332 -0.1041  0.0351
 1551WN      WN11655   8.379  14.711   3.548 -0.1194 -0.1599 -0.3286
 1552WN      WN11656   9.296  12.819  12.694  0.3133  0.0458  0.0068
 1553WN      WN11657   4.022  14.351   4.895 -0.0922  0.0721 -0.0459
 1554WN      WN11658   9.744   4.126  12.175 -0.0634  0.1448 -0.0433
 1555WN      WN11659  15.422  13.578  10.467 -0.1721  0.1911  0.2051
 1556WN      WN11660  15.065   3.289  10.485 -0.0436  0.1700  0.4197
 1557WN      WN11661   1.107   3.291  12.728 -0.0307  0.1565 -0.3102
 1558WN      WN11662   7.631   7.284   2.218  0.3510 -0.0019  0.2415
 1559WN      WN11663   3.581   1.150  12.001  0.0822  0.1561  0.3678
 1560WN      WN11664   6.065   7.219  11.816  0.1544  0.1737 -0.2216
 1561WN      WN11665   2.870   6.149  11.239  0.1343 -0.1059  0.0676
 1562WN      WN11666   9.788  10.093  10.780 -0.3531  0.2717 -0.2896
 1563WN      WN11667   8.222   9.528   1.940  0.0548  0.0950  0.2564
 1564WN      WN11668   7.408   0.876  12.791 -0.1196 -0.0611 -0.1025
 1565WN      WN11669   8.428   2.053  13.045 -0.0110 -0.0829 -0.2696
 1566WN      WN11670   3.748   3.799   1.483  0.2145  0.1649  0.5308
 1567WN      WN11671   9.093   1.217   3.269  0.2039  0.2161  0.0419
 1568WN      WN11672  11.600  15.236   0.170  0.2738  0.0358  0.4650
 1569WN      WN11673   4.878   8.564  12.497 -0.0790  0.0425  0.1359
 1570WN      WN11674   3.685   6.649   2.007 -0.0745  0.0871  0.3987
 1571WN      WN11675  12.062   7.372   2.337  0.0265 -0.2250  0.2597
 1572WN      WN11676   0.734  10.205  10.406 -0.0003  0.1043  0.0823
 1573WN      WN11677  10.836   8.179  11.006  0.2612 -0.2556  0.0431
 1574WN      WN11678   0.654  11.359  12.892 -0.0130 -0.0061  0.3020
 1575WN      WN11679  14.673  12.863  12.923  0.1575 -0.0888  0.1633
 1576WN      WN11680   2.586  12.783  12.839  0.4113 -0.1169  0.0953
 1577WN      WN11681  11.469   7.564  11.356 -0.2501 -0.0386  0.0552
 1578WN      WN11682   5.163   0.708   3.845  0.1500 -0.1395 -0.0949
 1579WN      WN11683   9.538  15.275   3.337  0.0507  0.0669 -0.1144
 1580WN      WN11684   6.275   7.679   0.418  0.1198 -0.2535 -0.0599
 1581WN      WN11685  10.883   1.793   2.543 -0.1510  0.0727  0.1299
 1582WN      WN11686   8.139  10.775  12.589 -0.2336 -0.0939 -0.0036
 1583WN      WN11687  11.191   8.062  11.984  0.1065 -0.1635 -0.1553
 1584WN      WN11688   4.043  14.033   2.456 -0.0411  0.2123  0.3579
 1585WN      WN11689   5.465   5.476  13.366  0.2481 -0.0082  0.2838
 1586WN      WN11690   6.963  13.719  11.390  0.0974 -0.0928  0.2521
 1587WN      WN11691   5.799   7.063   9.624 -0.2735  0.1323  0.1960
 1588WN      WN11692   8.741   7.979   0.391 -0.0450 -0.0834 -0.3166
 1589WN      WN11693  13.246   2.027  11.232  0.1354  0.1780  0.2583
 1590WN      WN11694  13.315   4.657   3.300  0.1270 -0.1573  0.4635
 1591WN      WN11695  14.611   3.295   3.906 -0.2629 -0.2138  0.0888
 1592WN      WN11696   3.023  13.330  11.827  0.1580 -0.0877 -0.3684
 1593WN      WN11697  11.141  13.804  13.010  0.1556  0.2804 -0.3126
 1594WN      WN11698   9.943   9.909   3.182 -0.0402 -0.0578  0.2905
 1595WN      WN11699  11.665   9.415   1.756 -0.2598 -0.1852 -0.1306
 1596WN      WN11700   4.887   3.815   4.629 -0.0927 -0.3729 -0.0119
 1597WN      WN11701  12.359  10.400   9.907 -0.0801  0.0419 -0.3675
 1598WN      WN11702  14.774  10.999   9.420 -0.0888 -0.4249 -0.0032
 1599WN      WN11703  15.834  14.271  10.153  0.0675  0.1727 -0.1006
 1600WN      WN11704   0.529  14.842  11.318  0.1352  0.1566 -0.0879
 1601WN      WN11705   9.522   0.515   0.579  0.1721  0.1069  0.0994
 1602WN      WN11706   6.014   5.917  12.078 -0.0097  0.1114  0.2156
 1603WN      WN11707   9.125   4.736   3.655  0.1328 -0.2297 -0.0830
 1604WN      WN11708   6.873  12.025   0.577  0.2300  0.0598  0.1344
 1605WN      WN11709   8.032   2.862   9.444  0.0499 -0.0349  0.1206
 1606WN      WN11710   6.040   6.442  12.227 -0.0298 -0.3021 -0.0294
 1607WN      WN11711  14.475   7.096   2.065  0.2489 -0.0871  0.2375
 1608WN      WN11712   8.540   5.407  10.597 -0.1268  0.0935 -0.0642
 1609WN      WN11713  12.138  12.870   3.218  0.1042 -0.0958  0.2575
 1610WN      WN11714  10.606   3.100  10.906  0.0841  0.0352 -0.1416
 1611WN      WN11715   4.991   4.370  13.031 -0.1262  0.0853  0.1408
 1612WN      WN11716   4.990   7.244   0.785  0.2779 -0.2710 -0.0474
 1613WN      WN11717   8.418  14.576  10.704  0.1214  0.0769  0.0672
 1614WN      WN11718   6.611   2.179   1.135  0.2673 -0.2266 -0.1001
 1615WN      WN11719  15.674   0.191   3.748  0.4316 -0.1416  0.2516
 1616WN      WN11720   8.288   5.382   9.431 -0.0711  0.1538  0.0087
 1617WN      WN11721   2.685  10.315   4.015 -0.2291 -0.1044  0.2427
 1618WN      WN11722  11.715   4.165   2.418  0.1991  0.1959  0.2283
 1619WN      WN11723   1.089   6.178   0.961 -0.1346 -0.0940  0.0865
 1620WN      WN11724   1.014  11.462  11.318 -0.1693 -0.0552 -0.2924
 1621WN      WN11725   9.290  10.168  11.853  0.0556 -0.1918 -0.1150
 1622WN      WN11726   1.304   6.040  12.142  0.0184  0.0903 -0.3285
 1623WN      WN11727   6.566   7.347  11.424 -0.1657 -0.1363  0.1146
 1624WN      WN11728  14.184  13.804  10.578  0.0914 -0.0306 -0.1963
 1625WN      WN11729  13.500  14.686  11.584  0.2500  0.1013  0.2312
 1626WN      WN11730  13.975  14.221  10.183  0.1366 -0.0937  0.1727
 1627WN      WN11731  10.484   9.723   2.957 -0.2551 -0.2465  0.1863
 1628WN      WN11732  14.990  15.619   1.110  0.1892 -0.2573  0.3641
 1629WN      WN11733  13.956  11.900   2.543  0.3585  0.1245  0.0969
 1630WN      WN11734   1.402  13.710   0.364 -0.1721 -0.1950  0.3429
 1631WN      WN11735   2.291  10.059   4.119  0.0749  0.0353 -0.0826
 1632WN      WN11736   9.784  13.288   0.895  0.2336 -0.0009 -0.0199
 1633WN      WN11737  10.244  14.955   8.737 -0.1958  0.2195 -0.1795
 1634WN      WN11738   0.975   5.511   9.805  0.3519  0.1221  0.0192
 1635WN      WN11739  11.340   2.120   3.009 -0.2343 -0.0658 -0.1027
 1636WN      WN11740   9.572   8.739   2.413  0.0669 -0.0729 -0.0251
 1637WN      WN11741  15.409   5.255   3.834  0.0022 -0.1580 -0.2897
 1638WN      WN11742   9.492  11.109  10.843  0.2712  0.3582  0.2035
 1639WN      WN11743  15.537   0.821   9.612 -0.1494  0.0543  0.1287
 1640WN      WN11744   2.258  14.102  11.798  0.0659  0.1957 -0.3942
 1641WN      WN11745   7.379   0.197   2.113 -0.0843  0.0530 -0.1275
 1642WN      WN11746  14.470   5.997   2.631 -0.2994 -0.2011  0.4160
 1643WN      WN11747   0.774  12.885   1.013 -0.0783 -0.0261 -0.1142
 1644WN      WN11748   0.911  11.973  12.232 -0.0018 -0.0189  0.0226
 1645WN      WN11749   4.982  13.325  12.959 -0.2114 -0.2017  0.1760
 1646WN      WN11750  10.535   5.588  13.049 -0.1975 -0.1049  0.2368
 1647WN      WN11751   3.955  11.647   2.687 -0.1462  0.2538 -0.0543
 1648WN      WN11752   4.723   7.070  12.698  0.3844  0.1638  0.4213
 1649WN      WN11753  12.104  11.505   0.213 -0.1262  0.0155  0.0826
 1650WN      WN11754  14.946   3.440   4.306  0.3018 -0.2627  0.0915
 1651WN      WN11755  13.694   3.635  11.874  0.2945  0.3962  0.2002
 1652WN      WN11756   1.906   7.050  11.136 -0.1206 -0.1737 -0.0735
 1653WN      WN11757  14.607   3.143   2.885 -0.0111 -0.0145  0.0723
 1654WN      WN11758  14.825  14.012   9.790  0.0411 -0.0162  0.2253
 1655WN      WN11759   7.928   4.936  13.320 -0.2096 -0.0531  0.0457
 1656WN      WN11760  12.072   8.786  10.686  0.0794 -0.0882  0.0111
 1657WN      WN11761   4.212   4.329   2.292 -0.0042 -0.1704  0.0414
 1658WN      WN11762   6.452   8.472   0.745 -0.2361 -0.1579 -0.6306
 1659WN      WN11763  10.944  13.280   1.027 -0.1920 -0.2692 -0.0744
 1660WN      WN11764  15.829   1.403  10.218 -0.0724  0.0356 -0.2671
 1661WN      WN11765   1.156  15.533   9.095 -0.1939 -0.0297  0.0794
 1662WN      WN11766   0.747  11.047  11.577  0.2975  0.0365 -0.0035
 1663WN      WN11767  12.055  15.630  11.102  0.0891 -0.1129 -0.2013
 1664WN      WN11768   8.907   0.791   3.088 -0.0254 -0.0720 -0.3348
 1665WN      WN11769   9.101   5.935  11.870  0.2759  0.1013  0.1570
 1666WN      WN11770  14.124   1.830   1.535  0.0613  0.0315 -0.0576
 1667WN      WN11771   8.675  10.474  13.214  0.1706 -0.2054 -0.0835
 1668WN      WN11772   6.087   8.998   0.139 -0.0757  0.4660 -0.3787
 1669WN      WN11773  13.929   3.381  10.484 -0.1020  0.2301 -0.1522
 1670WN      WN11774  14.195   9.225  10.222  0.0476  0.0409 -0.1153
 1671WN      WN11775  11.951   1.476   2.657  0.1249  0.1348 -0.0732
 1672WN      WN11776   3.692   7.638   0.943 -0.0084 -0.0320  0.2420
 1673WN      WN11777   9.025  12.367   4.169  0.0847  0.2058 -0.0936
 1674WN      WN11778  13.679   8.822   0.883 -0.1889 -0.0082 -0.3073
 1675WN      WN11779  12.988  13.224  10.216  0.2776  0.2123  0.0972
 1676WN      WN11780   0.249   9.365   9.921 -0.0526  0.0494  0.2209
 1677WN      WN11781  15.024  15.879   1.591 -0.0681  0.1012  0.2120
 1678WN      WN11782   2.228  11.917  13.390  0.2420  0.0034 -0.0558
 1679WN      WN11783  13.186   1.020   8.901 -0.1921 -0.4040  0.0810
 1680WN      WN11784  15.173   7.187   2.476  0.0910 -0.2443 -0.2826
 1681WN      WN11785  10.394  10.582  11.984  0.2203  0.3332 -0.3599
 1682WN      WN11786   7.005  11.655  11.571  0.4678  0.0193 -0.0318
 1683WN      WN11787   8.759  11.561   8.912  0.2440  0.1940  0.0907
 1684WN      WN11788  13.285   8.977   1.365  0.0903  0.0249  0.3539
 1685WN      WN11789  12.168  15.436   0.271 -0.2233 -0.2053 -0.4327
 1686WN      WN11790  11.742  10.785   1.485 -0.0752  0.0767  0.0212
 1687WN      WN11791   8.305   3.851   0.340  0.2147 -0.2880  0.1759
 1688WN      WN11792  12.544   0.581   3.639  0.0741  0.1925 -0.2566
 1689WN      WN11793   5.248   0.175  13.127  0.1866  0.2190  0.0366
 1690WN      WN11794   0.116   8.907  10.493 -0.1083  0.1723 -0.1202
 1691WN      WN11795   7.378  13.671  12.554  0.0770 -0.0065  0.1315
 1692WN      WN11796   4.009   2.658   8.985  0.0362  0.3155  0.1103
 1693WN      WN11797   1.553   0.968   4.187  0.2483  0.1261 -0.0309
 1694WN      WN11798  11.462   0.452   3.551 -0.1013  0.2748 -0.0099
 1695WN      WN11799  10.873   7.339  10.711 -0.0412 -0.1103 -0.2115
 1696WN      WN11800   4.632   8.001   2.053 -0.4609  0.1211 -0.2161
 1697WN      WN11801   3.834   2.389  11.910 -0.1486  0.0157  0.1548
 1698WN      WN11802   6.521   7.112   0.628  0.2233 -0.2930 -0.1593
 1699WN      WN11803   7.825  14.562   8.850  0.0451 -0.0379  0.2664
 1700WN      WN11804   9.086   9.619   4.833 -0.0581 -0.1569 -0.1615
 1701WN      WN11805   3.942  12.161   1.744  0.0522 -0.5199  0.0365
 1702WN      WN11806  10.012  12.661   8.240 -0.1055  0.0293  0.2995
 1703WN      WN11807  13.099  12.441  10.190 -0.0398  0.0221 -0.1806
 1704WN      WN11808  11.869  12.668  12.782  0.1816  0.0149 -0.2084
 1705WN      WN11809   2.048  10.665  10.752 -0.0345 -0.0670  0.2974
 1706WN      WN11810   2.592   3.364   8.879 -0.0762 -0.0776  0.1189
 1707WN      WN11811   9.916   1.599   0.295  0.0218  0.1361  0.4348
 1708WN      WN11812   6.565  13.717  11.748  0.3652 -0.2678 -0.2625
 1709WN      WN11813  11.567   3.783  10.601  0.0251  0.0251  0.0250
 1710WN      WN11814   9.219   5.727   1.742 -0.0222 -0.2036  0.2084
 1711WN      WN11815   4.860   2.006   1.994  0.0482 -0.0729  0.3221
 1712WN      WN11816   7.183   2.219  11.465 -0.0048 -0.0943 -0.3951
 1713WN      WN11817   4.757   2.975  13.285 -0.1869 -0.2246 -0.2796
 1714WN      WN11818  12.593   9.648  10.654  0.3822 -0.0334 -0.1640
 1715WN      WN11819   9.761  12.693  12.954  0.0737  0.1189 -0.0560
 1716WN      WN11820   6.953   1.814  11.748 -0.0865 -0.4973  0.1184
 1717WN      WN11821  10.768   9.694  12.145 -0.1067  0.1132 -0.0146
 1718WN      WN11822   0.304  10.141   9.759 -0.0554 -0.0196 -0.2397
 1719WN      WN11823  12.521  10.053  11.039  0.1735 -0.0258  0.1687
 1720WN      WN11824   8.782  11.113   2.433  0.1797  0.0577 -0.0200
 1721WN      WN11825   8.189   7.956  12.753  0.1760  0.3297 -0.3993
 1722WN      WN11826   4.716   7.593   0.451 -0.2040  0.0968 -0.0147
 1723WN      WN11827   2.751   0.861   2.038  0.1899  0.2187 -0.0426
 1724WN      WN11828   5.810   0.578  10.682  0.0376  0.1387  0.1612
 1725WN      WN11829   3.143   1.967  12.485 -0.1838 -0.2557  0.2026
 1726WN      WN11830  12.836   0.327   9.553 -0.0945  0.2935 -0.1274
 1727WN      WN11831  11.627   8.101   4.301  0.0417 -0.1962 -0.2382
 1728WN      WN11832   1.412  15.196  12.612  0.1988  0.3937  0.3656
 1729WN      WN11833   5.417   8.593  12.287  0.2798  0.0615  0.1234
 1730WN      WN11834   6.382   0.054   4.278  0.0300  0.0286 -0.3048
 1731WN      WN11835  15.033   7.472   3.927 -0.1647 -0.1336  0.3085
 1732WN      WN11836   1.250  12.325  13.155 -0.0643  0.0500 -0.0140
 1733WN      WN11837   3.942   1.088   3.352  0.1727  0.0913  0.1521
 1734WN      WN11838   8.159   1.079   0.903 -0.1546 -0.2427 -0.0888
 1735WN      WN11839  11.793  10.257   9.130  0.0317  0.0832 -0.0060
 1736WN      WN11840   7.479   8.444   0.928 -0.0245  0.0467 -0.0647
 1737WN      WN11841  10.290  10.225   2.868  0.0307 -0.0404 -0.0051
 1738WN      WN11842  14.503  14.113  11.310  0.1175 -0.2130  0.3274
 1739WN      WN11843  13.060  10.896  13.034 -0.1357  0.2663  0.1065
 1740WN      WN11844  15.147   9.566   2.399  0.0404 -0.2618 -0.1150
 1741WN      WN11845  13.711  10.013  13.157  0.0514  0.1613  0.0418
 1742WN      WN11846   6.929   0.186   2.337  0.1495 -0.0317  0.1816
 1743WN      WN11847   3.522   2.754  12.010  0.0145  0.2711 -0.1396
 1744WN      WN11848   8.867   5.503   4.238  0.1610 -0.0551 -0.1028
 1745WN      WN11849   2.876   2.811   2.317  0.0169 -0.0713 -0.0362
 1746WN      WN11850  11.459   5.711   3.645  0.1576 -0.1785  0.4915
 1747WN      WN11851  13.401   6.847   1.069  0.1030  0.0701 -0.1074
 1748WN      WN11852   6.108   6.214   3.385 -0.1683 -0.1830 -0.4393
 1749WN      WN11853  12.395  13.091  11.475  0.0618  0.2162 -0.2449
 1750WN      WN11854  13.317   4.228   9.865  0.1920 -0.1271 -0.1502
 1751WN      WN11855  11.803   3.097   4.495 -0.1063 -0.0848 -0.0147
 1752WN      WN11856   2.558   3.714   3.943  0.0780 -0.1147  0.2198
 1753WN      WN11857  13.191   8.008   2.711 -0.0605 -0.0576  0.0142
 1754WN      WN11858   4.202   3.428  13.368 -0.1270 -0.1269  0.0433
 1755WN      WN11859   3.334  13.120  12.186 -0.0650  0.2073  0.1112
 1756WN      WN11860  15.333   8.944   9.642  0.0996  0.0939 -0.1339
 1757WN      WN11861   7.228  15.569   3.629 -0.0973 -0.1971 -0.1374
 1758WN      WN11862  14.334   9.337   3.150 -0.1747  0.1597  0.2012
 1759WN      WN11863   0.075  14.706   4.059 -0.2200 -0.0405  0.0187
 1760WN      WN11864   9.936  13.455   2.594  0.0027  0.1595 -0.0997
 1761WN      WN11865   0.271   8.031  12.509 -0.1185 -0.1526  0.2607
 1762WN      WN11866   2.014   9.285   1.826  0.1006  0.1735 -0.2771
 1763WN      WN11867  14.176  14.125   9.251 -0.1796 -0.1833 -0.1838
 1764WN      WN11868   6.608  13.966   0.762  0.0678  0.1110 -0.0474
 1765WN      WN11869   8.040   8.810   3.979  0.1498  0.2828  0.1205
 1766WN      WN11870   5.157   3.814   3.315 -0.0304 -0.3309  0.0223
 1767WN      WN11871   3.352  10.640   9.178 -0.2000 -0.0777 -0.2077
 1768WN      WN11872   9.918   9.629  11.028 -0.0772  0.1676  0.1766
 1769WN      WN11873   0.010   3.992   9.181 -0.1685  0.0909  0.1156
 1770WN      WN11874  10.081  10.594  11.619 -0.0814  0.0364  0.1253
 1771WN      WN11875   8.639  12.535   0.594 -0.4304 -0.1846  0.1878
 1772WN      WN11876   6.811   7.058   2.622 -0.0158 -0.1717 -0.0192
 1773WN      WN11877   2.782   0.155   3.298 -0.0966  0.1439  0.1930
 1774WN      WN11878  12.781   8.873   3.979  0.1407  0.0112  0.0201
 1775WN      WN11879  12.572   6.613  11.537 -0.3266 -0.0688 -0.0286
 1776WN      WN11880   3.590   5.086  10.910 -0.1945  0.0821  0.0496
 1777WN      WN11881  15.596  11.111   1.594 -0.2925 -0.2156 -0.0678
 1778WN      WN11882  13.921   9.634  11.045 -0.1778 -0.2393  0.0477
 1779WN      WN11883   9.003   8.384   4.620 -0.2041 -0.0214  0.2692
 1780WN      WN11884  11.065   0.230   3.344 -0.0588 -0.2018  0.0922
 1781WN      WN11885   7.403   2.956   4.009 -0.0897  0.0415  0.0378
 1782WN      WN11886   9.001  15.429   1.971 -0.4422 -0.0976  0.2555
 1783WN      WN11887  14.772   6.905   1.624 -0.2227  0.1400 -0.0021
 1784WN      WN11888  14.792   2.884   9.234 -0.2821  0.0283 -0.0071
 1785WN      WN11889   1.535   2.126  10.608  0.0372  0.2863  0.0477
 1786WN      WN11890   3.361   8.139   1.795 -0.0158  0.1197  0.0886
 1787WN      WN11891  13.313   4.382  12.194  0.3362  0.0670  0.1197
 1788WN      WN11892  11.266   0.610   2.034  0.0724  0.2348  0.2147
 1789WN      WN11893   5.241  14.450  10.515 -0.0562  0.1523  0.1688
 1790WN      WN11894   3.447  13.400   3.684  0.2959 -0.0687  0.0230
 1791WN      WN11895  15.333  13.389   0.953 -0.2039  0.2424 -0.0458
 1792WN      WN11896  11.229  15.752   9.123  0.0598 -0.0395  0.0458
 1793WN      WN11897   9.076   3.974   0.743  0.5573 -0.0860 -0.1551
 1794WN      WN11898  11.942   8.498  10.248  0.0948  0.0621  0.0847
 1795WN      WN11899   5.144  10.732   0.523  0.3066 -0.0629 -0.0293
 1796WN      WN11900   2.716   6.766   4.266 -0.0099 -0.0337  0.1619
 1797WN      WN11901  14.378  14.976   0.742 -0.0552  0.1104  0.1118
 1798WN      WN11902   0.770   3.004   4.062 -0.2039  0.2885 -0.0880
 1799WN      WN11903   3.658   5.879  11.548 -0.4059 -0.0873  0.0821
 1800WN      WN11904   7.642   6.207  11.458 -0.0825 -0.2266  0.1165
 1801WN      WN11905   9.780   9.576   2.474  0.2065 -0.3209  0.1250
 1802WN      WN11906   4.821  14.232   1.371  0.1383 -0.1784  0.0723
 1803WN      WN11907   8.330  13.495   4.115  0.0511  0.3005 -0.0335
 1804WN      WN11908   3.947   5.928  12.909 -0.0140  0.0759  0.0977
 1805WN      WN11909  10.018   9.940  13.341  0.0959 -0.1028  0.5026
 1806WN      WN11910   8.004  12.262   8.715  0.2766 -0.1328 -0.0545
 1807WN      WN11911   8.975   8.587  11.676 -0.0201  0.2397 -0.3355
 1808WN      WN11912   0.308   2.405   0.606  0.2298 -0.0883  0.0997
 1809WN      WN11913   0.208  14.678  10.467  0.2154  0.2457 -0.0267
 1810WN      WN11914   7.973   1.842  11.270  0.1885 -0.2849 -0.0158
 1811WN      WN11915   2.239  14.425  12.243  0.1833  0.0301 -0.0152
 1812WN      WN11916   1.041  11.854   3.606 -0.1673  0.2951  0.1531
 1813WN      WN11917   6.429   6.501  12.548  0.0177  0.0811 -0.0440
 1814WN      WN11918   2.193   3.418  12.047 -0.0755 -0.3521  0.0691
 1815WN      WN11919   5.638   1.006   0.387  0.0094 -0.1337  0.1487
 1816WN      WN11920   3.402   0.254  12.739  0.2359  0.1817 -0.1959
 1817WN      WN11921  11.084  14.462   1.653  0.2615 -0.3992  0.0007
 1818WN      WN11922   4.221   8.876   2.008 -0.1350  0.1298 -0.0415
 1819WN      WN11923  13.242   8.456   1.173 -0.1249  0.0356 -0.0865
 1820WN      WN11924   9.558  13.949  10.854  0.1866  0.0651 -0.0566
 1821WN      WN11925   8.913   9.995  12.800 -0.0529 -0.0000 -0.3845
 1822WN      WN11926   2.837   9.097  12.114  0.3085 -0.0402 -0.1641
 1823WN      WN11927   9.709   6.768   1.589 -0.0706 -0.1514 -0.0484
 1824WN      WN11928   7.976  12.973   3.910  0.0436 -0.1349 -0.1728
 1825WN      WN11929  12.842   4.103   0.309  0.1973  0.0561 -0.2190
 1826WN      WN11930   2.372   5.682   2.062 -0.1983 -0.0792  0.1179
 1827WN      WN11931  12.798   7.657  11.987  0.1736 -0.1230  0.0973
 1828WN      WN11932  13.852   4.455  10.275  0.0384  0.0558 -0.0956
 1829WN      WN11933  12.982   1.498   9.193 -0.0436  0.2073  0.0174
 1830WN      WN11934   8.517   7.361  12.879  0.1611  0.1533 -0.1312
 1831WN      WN11935   8.697   4.032   9.290  0.0338  0.0855 -0.0408
 1832WN      WN11936   5.569   2.549  13.166  0.0326 -0.0425  0.1957
 1833WN      WN11937   6.294   4.053   2.556 -0.1665 -0.2295 -0.0914
 1834WN      WN11938  11.293   4.949  12.936 -0.1407 -0.2499 -0.0700
 1835WN      WN11939   2.417   1.754  11.598 -0.4155  0.2023  0.0803
 1836WN      WN11940  11.520   1.404   9.702  0.0267 -0.0432 -0.2582
 1837WN      WN11941  12.708   1.122   3.213  0.0804 -0.0145 -0.2166
 1838WN      WN11942   1.956   5.047   1.722  0.1102  0.3168 -0.1584
 1839WN      WN11943   3.594  14.039  11.542  0.1035 -0.2835  0.2897
 1840WN      WN11944  11.881  12.633  13.315 -0.2145 -0.2604 -0.1022
 1841WN      WN11945   5.631  12.088  11.176 -0.2966 -0.1658  0.2159
 1842WN      WN11946   1.831   8.163   3.457 -0.3053 -0.0137  0.1672
 1843WN      WN11947   6.704  13.109   0.330 -0.0301  0.2483  0.4113
 1844WN      WN11948   8.080  12.052  10.306 -0.0906  0.3171  0.0390
 1845WN      WN11949   6.481  11.531  10.206  0.0124 -0.2118  0.0008
 1846WN      WN11950  15.229   2.701   1.666  0.0720 -0.3011 -0.0354
 1847WN      WN11951  14.294  14.297   4.183  0.1142 -0.0352  0.1075
 1848WN      WN11952  13.760   4.512  11.983 -0.1869  0.3524  0.0287
 1849WN      WN11953   8.458  10.551  11.655  0.0936 -0.2317 -0.0695
 1850WN      WN11954   1.146  12.965   9.818 -0.1718  0.0212 -0.1891
 1851WN      WN11955   6.733  10.780   9.624 -0.0712 -0.1085  0.1621
 1852WN      WN11956   6.224   5.397   3.142  0.0554  0.0474  0.1512
 1853WN      WN11957   1.202   1.937   9.304  0.1807 -0.1742 -0.3234
 1854WN      WN11958   1.555  14.445   9.143  0.2268 -0.0174  0.3011
 1855WN      WN11959   3.251   8.511   1.478 -0.0978 -0.0081 -0.2853
 1856WN      WN11960   4.672   4.635   2.277  0.4112  0.0945 -0.0882
 1857WN      WN11961  14.326   6.049   2.127  0.1138 -0.0519 -0.1069
 1858WN      WN11962   3.673   5.145   2.146 -0.0812  0.0734  0.4429
 1859WN      WN11963  11.890   0.981   2.728  0.0993 -0.1081 -0.1445
 1860WN      WN11964   8.020   2.515   9.849 -0.0602  0.1555  0.0053
 1861WN      WN11965   5.978  13.547  10.658 -0.0089 -0.1527 -0.1985
 1862WN      WN11966   0.921   3.564   2.137  0.1861  0.1006  0.0924
 1863WN      WN11967  12.347   1.216   1.878  0.1623  0.2335 -0.0802
 1864WN      WN11968   4.655   8.281   0.980  0.2557 -0.5032  0.2768
 1865WN      WN11969  13.559   0.554  12.486 -0.1234  0.1440 -0.2024
 1866WN      WN11970  14.685   3.994   1.319  0.0301 -0.1970  0.1880
 1867WN      WN11971  10.159  12.885  12.521 -0.0151 -0.2546 -0.1785
 1868WN      WN11972   9.356  15.773   2.496  0.0671 -0.0797 -0.2493
 1869WN      WN11973   9.529   6.285   4.121 -0.0992  0.2479 -0.2365
 1870WN      WN11974   0.243   1.856   9.322 -0.4311 -0.1235  0.1748
 1871WN      WN11975  11.944   3.121  11.199 -0.1058  0.1550 -0.2828
 1872WN      WN11976  10.124   1.364   1.857  0.1332 -0.0388  0.1866
 1873WN      WN11977   8.158   5.759   9.739 -0.0215  0.2046 -0.3871
 1874WN      WN11978  12.726  11.666   3.717 -0.3438 -0.2919 -0.1176
 1875WN      WN11979  14.014   5.054  11.191  0.2250 -0.0962 -0.0469
 1876WN      WN11980   7.931   4.193   3.424 -0.0718  0.0940  0.1322
 1877WN      WN11981   0.145   7.742   0.044  0.1994  0.0110  0.3072
 1878WN      WN11982   0.863   9.064  13.409 -0.3324 -0.1170 -0.1078
 1879WN      WN11983   7.387   2.014  13.410  0.2350 -0.1942 -0.1840
 1880WN      WN11984   3.532  13.196   1.984  0.0275 -0.1441  0.0643
 1881WN      WN11985   1.738  15.704   3.389 -0.1694 -0.1309  0.0924
 1882WN      WN11986   9.702   2.488   4.352  0.2394 -0.0378  0.1591
 1883WN      WN11987  10.697  10.021   9.125 -0.0172  0.0857 -0.2084
 1884WN      WN11988  12.911  10.395   8.814 -0.0018  0.1881  0.1496
 1885WN      WN11989  11.139   8.378   8.641 -0.1473  0.0050 -0.2776
 1886WN      WN11990   4.965  11.721  10.506 -0.1187  0.1514 -0.0302
 1887WN      WN11991   9.612   2.427   1.936 -0.0239  0.2984  0.0717
 1888WN      WN11992   7.121  12.684  11.760 -0.0346  0.1825  0.1439
 1889WN      WN11993   7.056   8.159   1.254  0.2682 -0.1338 -0.3134
 1890WN      WN11994  14.594  12.711   9.361 -0.0381  0.3184 -0.0370
 1891WN      WN11995   6.760   2.009   3.590  0.1033 -0.0445 -0.2469
 1892WN      WN11996  10.722  15.828  12.318 -0.2893  0.0661 -0.0915
 1893WN      WN11997   1.155  13.441   3.561  0.2621 -0.1826  0.0798
 1894WN      WN11998   3.282  11.226  12.502  0.2728  0.3065 -0.1712
 1895WN      WN11999   8.390   0.953  10.148 -0.0877 -0.1878 -0.0212
 1896WN      WN12000   2.538   4.983   9.764 -0.1053 -0.2760 -0.1158
 1897WN      WN12001   5.196   2.644   3.204 -0.5300  0.1132 -0.1158
 1898WN      WN12002  10.884  15.128   9.748  0.2061  0.1455 -0.1641
 1899WN      WN12003   4.895   3.003   0.631 -0.1840  0.3666 -0.1503
 1900WN      WN12004  12.035  12.133   9.256 -0.0703  0.4046 -0.3245
 1901WN      WN12005   1.881  15.527  11.391 -0.0284 -0.1894 -0.1081
 1902WN      WN12006  10.716   1.310  13.066 -0.2230 -0.4716  0.0357
 1903WN      WN12007   1.120   5.734   2.772 -0.2301 -0.2201 -0.2037
 1904WN      WN12008   0.325   5.570   4.545  0.3481 -0.0674 -0.0765
 1905WN      WN12009   2.737   6.700  12.994  0.0782  0.2411 -0.2338
 1906WN      WN12010  10.252   8.189  10.909  0.1699  0.1528 -0.3150
 1907WN      WN12011  12.384  14.937   0.378 -0.2568 -0.2135 -0.0012
 1908WN      WN12012   7.905  13.156  10.111 -0.1885  0.1298 -0.0018
 1909WN      WN12013   5.285   2.189   9.530  0.0921 -0.3383 -0.0051
 1910WN      WN12014   5.628  15.794   3.645  0.0549 -0.0400  0.4857
 1911WN      WN12015   8.852  11.589   9.540  0.0619 -0.1884  0.2257
 1912WN      WN12016  15.130   5.737  11.633  0.1497  0.1601 -0.1601
 1913WN      WN12017   0.260   3.629  10.196 -0.2023 -0.0931  0.2035
 1914WN      WN12018   5.456   3.256   9.833 -0.0743 -0.5918 -0.1279
 1915WN      WN12019  13.501  11.357   1.063  0.2219 -0.1316 -0.3014
 1916WN      WN12020   6.982  12.818   3.630 -0.3729 -0.1986 -0.0316
 1917WN      WN12021   7.806   9.995   4.579 -0.5583  0.0214 -0.0593
 1918WN      WN12022   8.109  14.927   3.246 -0.3104 -0.3899  0.3633
 1919WN      WN12023   6.379  10.411   9.374 -0.2708 -0.4337 -0.1641
 1920WN      WN12024  10.434  10.951   3.101  0.1809 -0.3527 -0.1304
 1921WN      WN12025  13.524   1.086  11.238 -0.0228  0.0796 -0.2942
 1922WN      WN12026   3.300   2.699  10.432 -0.2052  0.0048  0.0715
 1923WN      WN12027   7.507  14.877  12.930 -0.0217 -0.0030 -0.0482
 1924WN      WN12028   7.198  10.529   2.395 -0.0603 -0.2214 -0.0812
 1925WN      WN12029   9.628   3.292  11.172  0.0327 -0.1226  0.0615
 1926WN      WN12030   6.014   3.837   1.538 -0.1463 -0.0224 -0.0283
 1927WN      WN12031  13.057  14.235  13.333 -0.1566 -0.1946 -0.2193
 1928WN      WN12032  14.763  12.892  11.198 -0.3006 -0.1716  0.1208
 1929WN      WN12033   5.246   2.712   2.192 -0.0053 -0.0300  0.1980
 1930WN      WN12034   4.640  14.879   9.922 -0.2419 -0.2368  0.1221
 1931WN      WN12035   6.614   2.702   2.741 -0.1409  0.0105 -0.0758
 1932WN      WN12036   2.503   1.381  11.208 -0.1233  0.0439 -0.2135
 1933WN      WN12037   3.002  15.010   9.903 -0.0715 -0.2710 -0.1985
 1934WN      WN12038   9.340   5.363   0.474 -0.1965  0.1800 -0.0755
 1935WN      WN12039   8.768   4.006  12.787 -0.0920  0.0029 -0.2693
 1936WN      WN12040  10.723   4.653   2.945  0.0101 -0.5050 -0.3573
 1937WN      WN12041   3.336  15.803   1.988 -0.1037  0.0101 -0.1857
 1938WN      WN12042   0.041   8.951   2.532 -0.3622 -0.0840 -0.0083
 1939WN      WN12043   9.587  12.142  10.273 -0.0829 -0.0652 -0.0819
 1940WN      WN12044   0.554  11.794   2.559 -0.0673  0.0139 -0.0154
 1941WN      WN12045  11.295   5.143   1.276 -0.4191 -0.0941  0.2035
 1942WN      WN12046   0.179   7.666   3.128 -0.1846  0.2641 -0.1458
 1943WN      WN12047   9.511  14.830  10.744  0.1669  0.2347 -0.0644
 1944WN      WN12048  13.700   8.958   3.588 -0.0256 -0.4545  0.2271
 1945WN      WN12049   7.253   6.204   0.376  0.2229 -0.0093 -0.3784
 1946WN      WN12050   1.237   9.029  12.139 -0.0742  0.1647 -0.1776
 1947WN      WN12051   6.951  14.520   9.219 -0.1616 -0.3124  0.3143
 1948WN      WN12052  15.103  13.611   1.566 -0.1067 -0.2733  0.1769
 1949WN      WN12053   7.209  11.457   9.248  0.3050  0.5154 -0.1362
 1950WN      WN12054   8.905   0.711   3.626  0.2550  0.3250  0.0263
 1951WN      WN12055   8.959   7.702   0.000  0.3816  0.1527 -0.1011
 1952WN      WN12056   2.653   3.506   0.208  0.0867 -0.1108 -0.0929
 1953WN      WN12057  11.323   8.060   9.023 -0.1010  0.0417  0.3919
 1954WN      WN12058   7.747   0.681  12.367  0.0306 -0.0629 -0.2293
 1955WN      WN12059  12.423  13.325   2.489  0.0126  0.0607  0.3556
 1956WN      WN12060   8.857   0.934   8.453  0.2788  0.2280  0.2642
 1957WN      WN12061   6.638  11.374  11.421 -0.2840  0.0514 -0.1597
 1958WN      WN12062  11.527   8.453   3.625  0.2100 -0.2295  0.1606
 1959WN      WN12063   4.458   4.996  10.613  0.2039 -0.2507 -0.3271
 1960WN      WN12064   8.749   1.745  13.310  0.1893 -0.1140  0.1542
 1961WN      WN12065  10.811  12.407   2.942 -0.0715 -0.1736  0.4851
 1962WN      WN12066  15.128  11.147  11.941  0.0742  0.0338  0.4078
 1963WN      WN12067   9.749  13.603   4.006  0.0457 -0.2038 -0.0361
 1964WN      WN12068  12.168   5.297   3.952 -0.2444 -0.0100  0.1442
 1965WN      WN12069   6.081   4.364   0.556  0.0580  0.0880 -0.1672
 1966WN      WN12070  14.924   2.881   4.152 -0.0591  0.1795  0.1874
 1967WN      WN12071  12.093  12.500   9.650  0.1919  0.1171  0.1181
 1968WN      WN12072  13.660   8.786   2.636  0.2154  0.1298  0.1290
 1969WN      WN12073  12.080   6.801   0.642  0.1575 -0.1773 -0.0095
 1970WN      WN12074   6.191  13.913  11.005  0.0916  0.2287 -0.4688
 1971WN      WN12075  13.760  12.828  10.035  0.3011  0.1727  0.1623
 1972WN      WN12076  11.413   5.174   0.524 -0.2465 -0.2271 -0.0868
 1973WN      WN12077  11.911   0.981   4.519  0.1298  0.1654 -0.0994
 1974WN      WN12078  12.602   8.100   4.626  0.2114 -0.3014  0.2022
 1975WN      WN12079   0.030  14.616  12.449 -0.0798 -0.1340 -0.2211
 1976WN      WN12080   8.153   1.018   1.986 -0.0522 -0.1066 -0.1532
 1977WN      WN12081   5.960  10.370   9.840 -0.0892 -0.1639 -0.1512
 1978WN      WN12082   4.017   5.155   1.797  0.1143  0.1545  0.3181
 1979WN      WN12083   7.561   5.353   4.272 -0.1447  0.1098 -0.0016
 1980WN      WN12084   0.224   2.794   1.535 -0.0999  0.0981 -0.1235
 1981WN      WN12085   1.254  12.198   9.136 -0.1733 -0.2428  0.3939
 1982WN      WN12086  11.722   6.288  11.164  0.0366  0.0545  0.2252
 1983WN      WN12087  13.071   2.529   2.147  0.1375 -0.2886 -0.2462
 1984WN      WN12088   5.573  14.723   3.124 -0.1683  0.1670  0.1977
 1985WN      WN12089  11.214  15.704  12.442 -0.2158  0.2736  0.0189
 1986WN      WN12090  10.530  10.368   8.796  0.2080 -0.1287  0.0530
 1987WN      WN12091   7.311  12.153  11.693  0.0512  0.0851  0.0782
 1988WN      WN12092   4.197  13.382  12.687  0.0022  0.0197 -0.1936
 1989WN      WN12093   5.161   5.930  13.442 -0.5020  0.1018 -0.0098
 1990WN      WN12094   0.347  12.289  13.052  0.2370  0.1424 -0.1348
 1991WN      WN12095  15.037   8.813   3.018 -0.1823  0.2590 -0.0414
 1992WN      WN12096   8.618  15.027   8.773 -0.0453  0.1212 -0.0470
 1993WN      WN12097   6.652  13.916  10.866  0.0128  0.0986 -0.3856
 1994WN      WN12098  13.587   1.047  12.127 -0.0150 -0.1891 -0.1616
 1995WN      WN12099   1.760  15.374  12.966  0.2895 -0.1683 -0.1478
 1996WN      WN12100  11.328   1.964  12.774  0.3612 -0.4404 -0.0257
 1997WN      WN12101   6.431   3.752   2.920 -0.3233 -0.1724 -0.0123
 1998WN      WN12102  14.870   8.066   2.865 -0.1031 -0.0527 -0.2316
 1999WN      WN12103  12.974  14.566   0.943  0.0260 -0.2622 -0.0670
 2000WN      WN12104   5.826  10.567  10.504  0.1922 -0.0394  0.0315
 2001WN      WN12105   3.374  14.024   9.335  0.1275  0.0350 -0.2647
 2002WN      WN12106   1.670   2.119   9.541 -0.3981  0.3691 -0.0936
 2003WN      WN12107  10.990  13.456  10.451  0.2313 -0.1476 -0.0604
 2004WN      WN12108   0.528   4.303   2.974 -0.0605 -0.1537  0.0059
 2005WN      WN12109  11.257  15.714   0.284  0.1005  0.5254 -0.0724
 2006WN      WN12110  13.767  12.784   0.618  0.1173  0.1064 -0.0301
 2007WN      WN12111   5.799  11.330   0.261  0.0969 -0.2460  0.1196
 2008WN      WN12112   3.625   5.504  12.632 -0.0554  0.2353  0.0841
 2009WN      WN12113  13.366   3.224  13.179 -0.2397  0.0074  0.0311
 2010WN      WN12114   8.085   4.814  12.480 -0.0967 -0.2243  0.2458
 2011WN      WN12115   6.507   7.915   3.799 -0.1820 -0.0582  0.1339
 2012WN      WN12116   7.463  15.155   4.507 -0.0310 -0.1201 -0.0430
 2013WN      WN12117  10.337   7.936   4.428 -0.3114 -0.0544 -0.0597
 2014WN      WN12118   7.657  15.497  11.213  0.1291  0.2724  0.0715
 2015WN      WN12119  12.732   3.130   4.073  0.1389  0.1894 -0.0547
 2016WN      WN12120   8.448   1.443   1.782 -0.0321 -0.1411 -0.0394
 2017WN      WN12121   6.243   0.254  10.142 -0.0385 -0.0701  0.1616
 2018WN      WN12122   2.845   3.356  12.684  0.4141 -0.2416  0.0891
 2019WN      WN12123   3.797   3.808  12.537 -0.1258 -0.0362 -0.3864
 2020WN      WN12124   3.808   7.336   1.292 -0.0443 -0.0291  0.0988
 2021WN      WN12125  12.278   7.638   9.738 -0.3442 -0.2990  0.4582
 2022WN      WN12126   9.805  12.673  10.224  0.1866  0.0384  0.3760
 2023WN      WN12127  14.810  13.127  12.190 -0.4928  0.1210 -0.0394
 2024WN      WN12128  12.026   6.456   3.311  0.0467  0.1031 -0.0585
 2025WN      WN12129   7.652   2.074   9.776 -0.1366  0.0693 -0.1835
 2026WN      WN12130   4.698   5.651   3.008 -0.3865 -0.0828  0.1742
 2027WN      WN12131   9.548   9.912  13.048 -0.3521  0.2049 -0.0883
 2028WN      WN12132   7.660  11.855   5.191 -0.0152  0.2176  0.2242
 2029WN      WN12133   0.813   6.768  11.045  0.2193  0.2912  0.1647
 2030WN      WN12134  14.523  15.677   2.486 -0.1259  0.2462 -0.0527
 2031WN      WN12135  13.063  15.330   9.410  0.1562 -0.1279 -0.0438
 2032WN      WN12136   5.999   4.272   1.149 -0.1914 -0.2489 -0.3033
 2033WN      WN12137   3.959   6.592  10.347  0.2564  0.0082  0.0772
 2034WN      WN12138   0.584   0.167   1.145  0.2799  0.2323  0.3857
 2035WN      WN12139  11.259   2.409   9.490 -0.1455 -0.0569 -0.1010
 2036WN      WN12140   6.043   9.569  11.355 -0.0036 -0.3907 -0.0053
 2037WN      WN12141  12.270  12.958   0.654  0.0352 -0.0307  0.0280
 2038WN      WN12142   4.720  11.696  10.058 -0.0665  0.2381 -0.0725
 2039WN      WN12143   8.377   5.075  11.499  0.3130 -0.1671 -0.0631
 2040WN      WN12144   9.715   0.602   3.194  0.1425 -0.0552  0.2715
 2041WN      WN12145   3.891   7.032   5.322  0.0693 -0.1753  0.0326
 2042WN      WN12146   9.111  13.623   2.653 -0.2244 -0.0538 -0.1047
 2043WN      WN12147  14.935   8.407   0.707 -0.2076 -0.1722 -0.2952
 2044WN      WN12148   2.141  11.187   0.398  0.3133 -0.0887 -0.1730
 2045WN      WN12149   1.331   0.474  11.299  0.0763  0.0339  0.2676
 2046WN      WN12150   2.463  15.033   3.549 -0.2161 -0.2526  0.3630
 2047WN      WN12151   0.434   7.529   5.078 -0.0824 -0.1455  0.1939
 2048WN      WN12152   3.892  13.296   3.403  0.1436  0.1279 -0.2198
 2049WN      WN12153   9.378  10.809  11.270 -0.0607 -0.3278 -0.1934
 2050WN      WN12154   0.416   6.378  10.901  0.2264 -0.0518  0.3925
 2051WN      WN12155   0.806   4.085  10.713 -0.0848 -0.2560  0.0634
 2052WN      WN12156   1.235  13.371  12.142 -0.0050 -0.2843  0.0203
 2053WN      WN12157   0.595   7.655  12.313  0.1015 -0.1935  0.1916
 2054WN      WN12158   3.700  10.895  10.728  0.0098  0.0342  0.4242
 2055WN      WN12159   2.545  15.567  10.730  0.2405  0.0296  0.0037
 2056WN      WN12160   2.115   2.917  12.138  0.0981 -0.1792  0.0345
 2057WN      WN12161  13.420   7.047  13.394  0.1958 -0.0329  0.0522
 2058WN      WN12162  10.299   1.616   4.412  0.0567 -0.1592  0.0898
 2059WN      WN12163   0.190   9.161   3.647 -0.3666  0.0538  0.1210
 2060WN      WN12164  11.499  13.515  13.223 -0.1538  0.0510  0.0579
 2061WN      WN12165   8.199  10.360   5.059  0.1046  0.1033 -0.0691
 2062WN      WN12166  15.707  15.882   1.592 -0.0712  0.2387 -0.0442
 2063WN      WN12167   9.151   9.614  12.575 -0.0843 -0.1156 -0.3348
 2064WN      WN12168   9.250  13.021  12.140  0.0683 -0.1190  0.3549
 2065WN      WN12169  10.945   3.290   8.993  0.0483  0.1288  0.1122
 2066WN      WN12170   2.451   4.470   3.484  0.2979  0.0150  0.3372
 2067WN      WN12171   4.569   1.469   4.266  0.3533 -0.0385 -0.0462
 2068WN      WN12172   9.160  15.062   9.500 -0.1948 -0.2027  0.0175
 2069WN      WN12173  10.777   3.824   2.012 -0.2533 -0.1321 -0.0167
 2070WN      WN12174  14.293  12.040  12.000  0.0015 -0.1191 -0.1039
 2071WN      WN12175  10.017   4.898  11.010  0.0696 -0.0110 -0.1154
 2072WN      WN12176   7.785   6.717   9.718  0.3732  0.0513  0.1748
 2073WN      WN12177  15.680   4.150   4.017  0.2097 -0.1038  0.1210
 2074WN      WN12178   4.112  15.616   2.153  0.1791 -0.0748  0.0856
 2075WN      WN12179   3.040   2.769   0.890 -0.1509  0.1695 -0.4295
 2076WN      WN12180   7.986  10.440   4.042 -0.1457 -0.2594 -0.3180
 2077WN      WN12181   3.261   1.457  13.273  0.1176  0.0310  0.0962
 2078WN      WN12182   2.364   6.134   9.816  0.1126  0.2958  0.2653
 2079WN      WN12183   4.166   8.839  10.196  0.1379 -0.2338  0.0322
 2080WN      WN12184   0.609   4.247   2.102 -0.3164 -0.1116  0.1411
 2081WN      WN12185   9.035   6.679  13.173 -0.0869  0.2085  0.1585
 2082WN      WN12186   8.596   2.807   1.704  0.0988 -0.3159  0.1552
 2083WN      WN12187   1.248  12.539   2.440  0.3946 -0.0746 -0.0428
 2084WN      WN12188   8.035   9.327   9.775  0.3816 -0.0792  0.2276
 2085WN      WN12189   9.756   2.488  13.308 -0.1440 -0.0550 -0.1264
 2086WN      WN12190   6.450   3.962   7.955  0.0841  0.1530  0.0259
 2087WN      WN12191  13.360  12.238   9.811 -0.1280  0.1578 -0.2783
 2088WN      WN12192   9.458   3.776  11.076  0.0019 -0.1806  0.2109
 2089WN      WN12193   1.568   0.067   3.929 -0.0772  0.0778  0.0581
 2090WN      WN12194   8.032  12.155   9.233  0.0022  0.2767  0.1118
 2091WN      WN12195   3.989   8.187   0.170  0.0591 -0.2070  0.0207
 2092WN      WN12196   6.143  15.558   4.560 -0.0007  0.0798 -0.0190
 2093WN      WN12197  15.275   9.588   9.519 -0.2050  0.0096  0.1986
 2094WN      WN12198   6.521   7.816   0.983 -0.0345 -0.2249 -0.1538
 2095WN      WN12199  12.053  12.955   9.268 -0.3642 -0.1606 -0.1415
 2096WN      WN12200  12.164  15.758   1.633  0.3347 -0.2536  0.1974
 2097WN      WN12201   4.786   4.741   3.587  0.2717 -0.0875  0.1026
 2098WN      WN12202   7.069   7.949   3.927  0.2640  0.0451 -0.1144
 2099WN      WN12203   5.323   1.886  11.775 -0.0949 -0.0134 -0.1236
 2100WN      WN12204   8.128  15.399   1.554 -0.2656  0.2361  0.0099
 2101WN      WN12205  12.295   3.391   0.234 -0.0924  0.2259 -0.1057
 2102WN      WN12206  15.797   0.259   8.771  0.0476  0.0841 -0.0358
 2103WN      WN12207   2.046   5.713   1.670 -0.3367 -0.1493 -0.2258
 2104WN      WN12208   5.101   0.495  11.506  0.2593 -0.1375 -0.0694
 2105WN      WN12209   7.692   9.717   3.459 -0.0632 -0.0628 -0.0718
 2106WN      WN12210   1.821  12.325   1.550  0.2501  0.0327 -0.1504
 2107WN      WN12211  12.010   5.251  13.217  0.0676  0.1456 -0.0921
 2108WN      WN12212   3.096   9.813   5.038 -0.0519 -0.1502  0.0898
 2109WN      WN12213   2.316   3.999   1.019 -0.1465  0.0421  0.1086
 2110WN      WN12214   0.781   3.125  12.348 -0.2427  0.2232 -0.1804
 2111WN      WN12215   8.536   2.188  10.708  0.2179 -0.1288 -0.4700
 2112WN      WN12216  10.674   3.155   1.817  0.0362 -0.0328 -0.1764
 2113WN      WN12217   5.436  14.865   4.406 -0.2141  0.0461  0.1767
 2114WN      WN12218  12.586  11.541   1.095  0.0842 -0.1049 -0.1773
 2115WN      WN12219   9.619   0.152   0.094 -0.2342 -0.0230  0.1249
 2116WN      WN12220   7.851   0.860   3.212  0.1725  0.1263  0.0946
 2117WN      WN12221   0.721  13.377   8.405 -0.4003 -0.0563  0.0053
 2118WN      WN12222   9.619  11.294   3.758  0.1839  0.2018  0.1206
 2119WN      WN12223   4.991   3.887  13.339 -0.0455  0.1611  0.0030
 2120WN      WN12224   4.429   8.899  11.297 -0.2030 -0.0054 -0.1591
 2121WN      WN12225   4.029   4.780  10.905  0.1979 -0.2355  0.1605
 2122WN      WN12226   4.565   8.127  12.457 -0.4267  0.0390 -0.3177
 2123WN      WN12227   2.971  15.179   1.215 -0.5084 -0.1689 -0.0110
 2124WN      WN12228   8.256   9.182   4.203 -0.1735  0.1033 -0.3863
 2125WN      WN12229  15.248  12.062  13.251  0.0963  0.1683  0.0381
 2126WN      WN12230   6.475  11.758   2.510  0.0770  0.2259 -0.2320
 2127WN      WN12231  12.494   8.304   0.387 -0.1827 -0.0511  0.4072
 2128WN      WN12232  11.729   4.994   1.786 -0.1121 -0.1784 -0.1516
 2129WN      WN12233   1.528   4.095  11.635 -0.2145  0.1111 -0.1557
 2130WN      WN12234   0.718  14.319   3.766 -0.2109 -0.1025  0.4963
 2131WN      WN12235  11.051  15.361  12.116 -0.2392  0.0853 -0.1769
 2132WN      WN12236   6.070  14.726   2.910 -0.0455 -0.3451 -0.3624
 2133WN      WN12237   8.371   0.274   2.490 -0.3024  0.0150 -0.1998
 2134WN      WN12238   5.022   5.370   0.737  0.1844  0.0123  0.0912
 2135WN      WN12239  10.901   1.061   2.908 -0.1004  0.0707 -0.0753
 2136WN      WN12240   4.474  10.648   0.881  0.0705  0.0960  0.0412
 2137WN      WN12241  15.062   0.695   3.113 -0.2286 -0.0471  0.1498
 2138WN      WN12242  11.175  12.515   3.325  0.1777  0.0395  0.2356
 2139WN      WN12243  13.280   7.850   2.200 -0.2656  0.1451  0.1310
 2140WN      WN12244   6.423   1.845   3.916  0.0700 -0.0419  0.1482
 2141WN      WN12245  15.809   9.749   1.685  0.1976  0.2609  0.1763
 2142WN      WN12246   2.554   2.770   1.950  0.0029  0.1151 -0.0677
 2143WN      WN12247  12.142  11.531   1.979  0.0423  0.0951 -0.1200
 2144WN      WN12248   9.545   4.360   9.046  0.1243 -0.3077  0.0518
 2145WN      WN12249  11.100  11.366  10.012 -0.1258 -0.0570 -0.1261
 2146WN      WN12250  11.338   3.697   1.119  0.2800  0.1100  0.2559
 2147WN      WN12251   9.162   9.846   8.919  0.0412 -0.1977 -0.0321
 2148WN      WN12252   2.733   4.472  11.750 -0.1166 -0.1612 -0.2683
 2149WN      WN12253   9.700  15.644   9.507 -0.0912  0.0317  0.0951
 2150WN      WN12254   8.588  11.005   8.931 -0.0162  0.1438  0.0625
 2151WN      WN12255   1.602   9.652   1.654  0.0366 -0.0196  0.0976
 2152WN      WN12256  11.864   6.945  13.091  0.1187  0.1070  0.2309
 2153WN      WN12257   5.381   4.841   9.410  0.1403 -0.1550  0.0967
 2154WN      WN12258   1.644   9.411   1.204 -0.1897  0.0395  0.1145
 2155WN      WN12259  11.683  12.032   1.314  0.0685 -0.1888 -0.2708
 2156WN      WN12260  15.399   4.146  11.785 -0.0997 -0.3429  0.3525
 2157WN      WN12261   1.532   7.486   3.511  0.0514  0.2041  0.1119
 2158WN      WN12262  15.737   1.292   2.658  0.1907  0.1037 -0.0925
 2159WN      WN12263   2.980   9.008   1.891  0.3623 -0.0395  0.2268
 2160WN      WN12264  12.971   8.339   4.421  0.0454 -0.1399  0.1852
 2161WN      WN12265   1.842   0.148   2.078  0.0681  0.3247  0.1880
 2162WN      WN12266  13.827   1.873  12.792  0.2219 -0.0482  0.3936
 2163WN      WN12267  10.739  10.001  10.533 -0.0428 -0.1633 -0.3774
 2164WN      WN12268  10.143  13.702   9.853  0.0789  0.1853 -0.0211
 2165WN      WN12269   5.224   2.065  12.947 -0.1479 -0.2867 -0.0120
 2166WN      WN12270   4.609   1.418   9.515  0.0029 -0.0357  0.0105
 2167WN      WN12271  12.117  11.590  10.702  0.1525 -0.3814 -0.0917
 2168WN      WN12272   3.615   7.743   1.467  0.1013 -0.2457  0.1486
 2169WN      WN12273   7.335  10.032   0.003 -0.0500 -0.3913  0.2717
 2170WN      WN12274   9.394  14.334   0.075  0.0895  0.2397  0.2439
 2171WN      WN12275   5.966  10.714  11.369  0.2017 -0.0491  0.1123
 2172WN      WN12276  10.522  11.815   0.682 -0.1333  0.3238 -0.2483
 2173WN      WN12277  13.357   3.256   2.767  0.1209 -0.0828 -0.0432
 2174WN      WN12278  14.318  10.015  11.954  0.2588  0.4036 -0.2243
 2175WN      WN12279  11.836  13.674  11.095  0.2112  0.1205  0.4969
 2176WN      WN12280   0.589  13.090  13.250  0.0395 -0.1177 -0.1556
 2177WN      WN12281  11.785  11.907   3.637 -0.1316  0.0647 -0.0672
 2178WN      WN12282   7.813   2.118   0.258  0.0462  0.0425 -0.0970
 2179WN      WN12283   0.955   0.154  11.486 -0.2366 -0.2597  0.2132
 2180WN      WN12284  10.981   6.667   3.940 -0.1981 -0.1177 -0.2137
 2181WN      WN12285  13.005  11.196   1.829  0.3862  0.2670  0.0726
 2182WN      WN12286   6.899  13.987   0.229  0.0827 -0.4276 -0.2210
 2183WN      WN12287   8.689  15.373  13.110  0.1989 -0.0271 -0.0410
 2184WN      WN12288  15.414   7.842  10.129 -0.0524 -0.0005 -0.1534
 2185WN      WN12289   8.883  14.719   9.150  0.0033 -0.1578  0.0256
 2186WN      WN12290  15.840   9.054   4.892 -0.3156 -0.0492  0.3934
 2187WN      WN12291   3.326   0.904   0.529  0.0927  0.0144 -0.1777
 2188WN      WN12292  15.557   0.989  10.249 -0.0869  0.0603  0.0253
 2189WN      WN12293  12.040  12.001  10.248  0.1635  0.0823  0.3314
 2190WN      WN12294  13.390   1.485   8.816  0.0223 -0.1806 -0.2595
 2191WN      WN12295  11.401  11.678  11.610 -0.0784  0.2867  0.1931
 2192WN      WN12296  15.009   2.013   3.682  0.0293  0.2908  0.1454
 2193WN      WN12297   3.465   9.034  10.090 -0.2401 -0.2922 -0.0602
 2194WN      WN12298  12.475  10.442  10.449 -0.2091 -0.4654 -0.1331
 2195WN      WN12299  14.905   2.456   1.948  0.0945  0.2422  0.0979
 2196WN      WN12300   4.078   0.307   1.574 -0.1421  0.1050  0.0142
 2197WN      WN12301   9.087   3.486  12.788 -0.3157 -0.0959  0.1756
 2198WN      WN12302   6.146   6.104   9.312 -0.2786 -0.1326  0.1793
 2199WN      WN12303  11.744   8.805   9.271 -0.0576  0.1743 -0.0067
 2200WN      WN12304   2.788   2.013   0.873  0.2548  0.0629 -0.1433
 2201WN      WN12305  14.660   4.587  10.059 -0.2351  0.2025  0.0368
 2202WN      WN12306   8.910  15.332   9.791  0.0413 -0.3573 -0.0148
 2203WN      WN12307   2.429   8.095  11.807 -0.0163  0.1312 -0.2083
 2204WN      WN12308  11.359   0.701  12.013 -0.1955  0.1174 -0.4309
 2205WN      WN12309   7.591   4.725   9.343  0.1323  0.1627 -0.0809
 2206WN      WN12310   3.773  11.071   4.294 -0.1364  0.0926  0.1504
 2207WN      WN12311   8.373  15.490  10.352  0.1513 -0.0567  0.2105
 2208WN      WN12312  10.456   2.765   9.577 -0.0013  0.2729  0.0249
 2209WN      WN12313   4.100   6.165  11.898 -0.2483  0.2882  0.0458
 2210WN      WN12314  12.566  15.371   0.023 -0.1753 -0.1536  0.1661
 2211WN      WN12315  11.136   3.691   4.650 -0.2171  0.1508  0.3405
 2212WN      WN12316  10.776   2.155   3.107 -0.1593 -0.1984  0.0852
 2213WN      WN12317  12.896  11.542   9.388  0.1856 -0.1970  0.0498
 2214WN      WN12318  12.356  13.937   9.778 -0.1588  0.2878  0.2178
 2215WN      WN12319   3.859   3.882  13.189 -0.0312 -0.1167 -0.3035
 2216WN      WN12320  11.935   6.112   1.368 -0.2064  0.0277 -0.0883
 2217WN      WN12321   7.444   5.893   3.469 -0.0565 -0.1110 -0.0252
 2218WN      WN12322   7.003  14.579   3.168 -0.0529 -0.0024  0.1026
 2219WN      WN12323  11.180   5.424  13.061  0.0010  0.0969 -0.0938
 2220WN      WN12324   2.800   3.905   0.910  0.1331  0.0390 -0.2182
 2221WN      WN12325  10.650  14.632   2.027  0.0052  0.4520 -0.1886
 2222WN      WN12326   5.184  12.589   9.570  0.1110  0.1818 -0.0271
 2223WN      WN12327   5.068  14.888  10.486 -0.1478 -0.0236  0.3606
 2224WN      WN12328   5.818   5.769   3.866  0.0919 -0.2942  0.0655
 2225WN      WN12329  14.266   2.867  10.684  0.1040 -0.6367 -0.0631
 2226WN      WN12330   4.071   1.151   2.673 -0.3411  0.2000 -0.1335
 2227WN      WN12331  15.378  15.385   4.413  0.2298  0.0566 -0.0178
 2228WN      WN12332   1.180   0.618   0.400  0.1869 -0.0681  0.0572
 2229WN      WN12333  10.801   8.043  12.687  0.2034  0.0415  0.0880
 2230WN      WN12334   2.558   9.077  12.870  0.1183  0.1622 -0.1969
 2231WN      WN12335   4.542   8.649  13.039  0.0357  0.1241 -0.1295
 2232WN      WN12336  12.828  15.661  10.871 -0.0649  0.0717  0.0360
 2233WN      WN12337   1.426   3.615   0.767  0.1371  0.0839 -0.1683
 2234WN      WN12338   1.718   3.312  12.185 -0.2380  0.2496 -0.2196
 2235WN      WN12339  14.363   0.437   0.141 -0.1445 -0.1355  0.1958
 2236WN      WN12340  11.298   3.637   1.747 -0.1862 -0.0773 -0.1215
 2237WN      WN12341  11.674   9.091  10.821  0.0927 -0.0463 -0.0003
 2238WN      WN12342   6.928  10.060   3.890  0.0032  0.1135 -0.0385
 2239WN      WN12343  12.319   2.660  10.423  0.2226  0.1466 -0.1902
 2240WN      WN12344  14.729   2.076   2.294 -0.1349  0.1293 -0.2822
 2241WN      WN12345   7.553  11.303   4.614  0.1560  0.1637 -0.0832
 2242WN      WN12346   8.950   5.427   1.430 -0.3450 -0.2037 -0.1357
 2243WN      WN12347   2.381  12.209   1.396  0.0438 -0.0291  0.1309
 2244WN      WN12348   4.375  13.653   3.223 -0.2569 -0.1178 -0.1389
 2245WN      WN12349  12.905   3.313  11.478  0.2718 -0.1533  0.0718
 2246WN      WN12350   2.075   6.101   0.497 -0.2232 -0.1074  0.2365
 2247WN      WN12351   3.319   9.144  11.347 -0.0905  0.2306 -0.1908
 2248WN      WN12352   4.899   7.700  10.115  0.1016 -0.2385  0.0403
 2249WN      WN12353  12.406   8.575  12.488  0.0914  0.1323  0.0369
 2250WN      WN12354  11.940  10.291   3.706 -0.0511  0.0579 -0.0318
 2251WN      WN12355   7.565   7.103  10.939  0.0316 -0.0632 -0.0873
 2252WN      WN12356   8.613  14.776   3.056 -0.0660  0.1912 -0.1174
 2253WN      WN12357   3.878  15.562   3.886  0.1259 -0.4014  0.3266
 2254WN      WN12358   7.759   9.626   4.958 -0.4375 -0.1953  0.3579
 2255WN      WN12359   7.863  13.293  12.760  0.1066 -0.0202 -0.2867
 2256WN      WN12360  10.021   5.548  13.204 -0.2145  0.2846 -0.1192
 2257WN      WN12361   4.182  13.708  10.204 -0.0147 -0.0816 -0.1074
 2258WN      WN12362   8.507  11.352   3.640  0.0625 -0.1003 -0.1784
 2259WN      WN12363  12.052  11.174  12.672 -0.1870 -0.0313  0.0909
 2260WN      WN12364  10.105   4.441   9.276  0.0160 -0.1871 -0.2306
 2261WN      WN12365  11.298   2.837   1.162 -0.1648  0.3678  0.1740
 2262WN      WN12366  15.772   6.045   9.774  0.4265  0.0125 -0.0259
 2263WN      WN12367   5.595   0.948  10.302 -0.1236 -0.2511 -0.1172
 2264WN      WN12368  15.611  10.906  10.912 -0.0806  0.1337  0.2012
 2265WN      WN12369  15.825   3.704   4.409  0.0040  0.0313 -0.0635
 2266WN      WN12370   0.018   4.371   9.699  0.0383 -0.0713 -0.2781
 2267WN      WN12371  12.787   6.928  12.857 -0.4376 -0.0603 -0.0199
 2268WN      WN12372  12.877   9.543  12.009  0.0465  0.0568 -0.0539
 2269WN      WN12373  13.906   8.543   4.049  0.0513  0.1353  0.1092
 2270WN      WN12374   8.406   4.230   2.494  0.2649  0.2220  0.0240
 2271WN      WN12375   2.585   9.912   0.477 -0.0318 -0.2189 -0.1591
 2272WN      WN12376  15.301  10.538  12.986  0.0574 -0.0141 -0.1904
 2273WN      WN12377   5.956   6.712  12.711 -0.0028 -0.1185 -0.0164
 2274WN      WN12378   1.394  13.504   1.905 -0.1862 -0.0650 -0.1658
 2275WN      WN12379   6.314  15.683   2.606 -0.2213 -0.1768  0.0716
 2276WN      WN12380  15.004   7.813  10.514  0.3607 -0.1135  0.0687
 2277WN      WN12381  15.161  11.011   1.542 -0.0900  0.4365 -0.2063
 2278WN      WN12382  12.833   4.103  11.933 -0.0503 -0.1162 -0.0410
 2279WN      WN12383   1.609   2.285  10.080 -0.3173  0.2441 -0.0553
 2280WN      WN12384   2.795   6.878   2.538 -0.1949 -0.0456 -0.1403
 2281WN      WN12385   6.582   5.156   2.131  0.2310  0.0242 -0.0487
 2282WN      WN12386  12.741  11.923   2.538 -0.0626  0.0570  0.2355
 2283WN      WN12387   0.268   1.298   4.681  0.1038 -0.3459 -0.0003
 2284WN      WN12388   4.586   8.731   3.076  0.0927 -0.0628 -0.0379
 2285WN      WN12389   7.575   8.767  13.233  0.0727  0.1534  0.2366
 2286WN      WN12390   3.396  14.110   8.845 -0.0615  0.0870 -0.1516
 2287WN      WN12391   0.197   6.179   3.307 -0.1294 -0.0579 -0.1317
 2288WN      WN12392   4.502  11.452   4.895  0.2545 -0.1150  0.2212
 2289WN      WN12393  12.780   8.883  12.349 -0.2870 -0.1954 -0.0321
 2290WN      WN12394   1.289   4.782  13.064 -0.2581 -0.2428 -0.1798
 2291WN      WN12395  14.582   2.644  11.813  0.1513 -0.1890  0.1896
 2292WN      WN12396   5.791  12.563   4.752  0.0260  0.0567  0.2229
 2293WN      WN12397   6.304   2.580   0.928 -0.2562 -0.1188 -0.0509
 2294WN      WN12398   9.486  14.777  10.159  0.0955 -0.1701 -0.2081
 2295WN      WN12399  15.052   7.357   4.842 -0.0189  0.0161  0.1403
 2296WN      WN12400  13.491  11.247   9.583 -0.1797  0.1735  0.0055
 2297WN      WN12401  13.133  15.191   2.828 -0.3059  0.0562 -0.1714
 2298WN      WN12402   3.576  13.672  11.871  0.1145 -0.1437 -0.2633
 2299WN      WN12403  12.916   0.709   3.331  0.1505  0.1631  0.1717
 2300WN      WN12404   3.295   3.090  12.288  0.4012  0.1530 -0.1872
 2301WN      WN12405  13.178  15.421   9.976 -0.2402 -0.1117  0.0800
 2302WN      WN12406   6.437   6.853   2.297 -0.0376 -0.0024 -0.2512
 2303WN      WN12407   5.341  10.045   4.484  0.0314 -0.1093 -0.0167
 2304WN      WN12408   9.505   8.307  10.490 -0.2106 -0.3052  0.0699
 2305WN      WN12409   9.562   7.186  12.017  0.0450 -0.0402  0.1361
 2306WN      WN12410  13.030  12.409   0.427 -0.1128  0.2297 -0.3015
 2307WN      WN12411   7.391  14.216   2.434 -0.0548  0.0555  0.2026
 2308WN      WN12412  15.177   4.393   0.499  0.0823  0.1727  0.1685
 2309WN      WN12413   2.413   6.262   0.868 -0.3318 -0.0710  0.2470
 2310WN      WN12414  15.216   9.056   4.785  0.0466  0.0610  0.4506
 2311WN      WN12415  12.242   4.513  10.596  0.0354  0.0094  0.0279
 2312WN      WN12416   8.159  12.507  10.507 -0.2993  0.0947  0.1603
 2313WN      WN12417   8.524   8.219  11.414 -0.1982  0.2100  0.0501
 2314WN      WN12418   7.434   4.762  11.695 -0.0359  0.2465  0.0468
 2315WN      WN12419   9.092  15.568   8.840 -0.1757  0.0648 -0.3595
 2316WN      WN12420  15.405   6.770   0.963 -0.1457  0.4588 -0.2181
 2317WN      WN12421  13.934   7.298   1.659 -0.0975  0.2079 -0.0383
 2318WN      WN12422  12.518  10.775   2.404 -0.0390 -0.1419  0.0748
 2319WN      WN12423   5.956  10.532   9.155  0.0266  0.3985 -0.3618
 2320WN      WN12424  13.620   1.888  10.451 -0.0656  0.1925 -0.1262
 2321WN      WN12425   0.738   7.736  10.812 -0.0302 -0.0863 -0.2007
 2322WN      WN12426  10.759   2.289   1.341 -0.1811  0.0375  0.3157
 2323WN      WN12427   2.529   2.614   3.070  0.4410  0.0396 -0.2721
 2324WN      WN12428   4.784   8.404   2.606 -0.0723  0.1274 -0.0882
 2325WN      WN12429   4.868   1.320   8.580 -0.1831  0.3087  0.2682
 2326WN      WN12430  10.055   0.136  10.856 -0.3402 -0.3476 -0.0188
 2327WN      WN12431  11.194   6.742  13.252 -0.0304 -0.3156 -0.4595
 2328WN      WN12432   5.567   0.896   3.690  0.1262 -0.0335  0.1978
 2329WN      WN12433   8.341  14.310   2.721  0.0896  0.0721  0.2083
 2330WN      WN12434   3.844   3.229   0.164  0.1447 -0.2605  0.2424
 2331WN      WN12435  10.241  10.251  12.824  0.1007 -0.3691  0.2425
 2332WN      WN12436   6.835   6.977  10.616 -0.4094 -0.1539  0.1436
 2333WN      WN12437  13.903   9.604  10.461 -0.1713 -0.0696 -0.1750
 2334WN      WN12438   1.716  11.174  12.135  0.0256 -0.0125 -0.0982
 2335WN      WN12439   4.261   7.911  12.049  0.0783  0.1567  0.2943
 2336WN      WN12440   2.121  15.762  10.937  0.0204 -0.0061  0.2184
 2337WN      WN12441   7.281   5.698   1.862  0.2198  0.0366 -0.0722
 2338WN      WN12442   7.066   1.805   0.959  0.1256 -0.0030  0.0395
 2339WN      WN12443   2.608   5.429   2.462 -0.0804  0.1135  0.0309
 2340WN      WN12444   7.912  10.524   4.692  0.2131  0.0128 -0.2217
 2341WN      WN12445  10.462   8.411  12.580 -0.0257 -0.0497 -0.0625
 2342WN      WN12446  15.178   6.983   3.860 -0.1704  0.3020  0.0961
 2343WN      WN12447  10.437   0.319   2.614  0.2004  0.2504  0.0019
 2344WN      WN12448   0.747   2.344   9.957  0.0377 -0.0590  0.0461
 2345WN      WN12449   1.771   6.261  12.031 -0.2858 -0.2018 -0.0622
 2346WN      WN12450   0.890   2.144  11.862 -0.4133 -0.2188  0.2096
 2347WN      WN12451   5.458   1.550   0.517  0.1167 -0.0072  0.2826
 2348WN      WN12452  10.618   5.043   2.173 -0.1010  0.1159  0.0461
 2349WN      WN12453   5.084   7.951  10.989  0.2030 -0.1621  0.0422
 2350WN      WN12454   6.390   6.265   2.952  0.2387  0.1228  0.1187
 2351WN      WN12455   6.240  14.364  11.305 -0.1986 -0.4410 -0.1275
 2352WN      WN12456  13.197   6.934  10.468  0.1730 -0.1608 -0.2342
 2353WN      WN12457   5.935  14.643   3.497 -0.3385  0.3095  0.0395
 2354PP      PP12458  13.166   5.018   1.716 -0.1366 -0.0207 -0.1004
 2355PP      PP12459  15.751   0.749  11.215  0.2466  0.0725  0.0312
 2356PP      PP12460  11.940  15.370  10.211  0.0765 -0.0085  0.2778
 2357PP      PP12461   0.672   2.519   3.878  0.0722 -0.3579  0.1684
 2358PP      PP12462   8.853  14.301  11.388  0.2102 -0.0700  0.2630
 2359PP      PP12463  11.028  10.905  12.487  0.0358  0.2093  0.2493
 2360PP      PP12464   8.858  10.118  11.585 -0.1306  0.1898 -0.2015
 2361PP      PP12465  10.959   6.437   9.851  0.0703  0.0934 -0.0998
 2362PP      PP12466   1.253   1.967   0.652  0.1098 -0.1902  0.2614
 2363PP      PP12467   9.669  13.728  11.637  0.0619  0.0766 -0.0059
 2364PP      PP12468   7.555   4.788  12.536  0.0840  0.1277  0.0902
 2365PP      PP12469   4.799  11.038   5.097  0.2400 -0.2862 -0.3482
 2366PP      PP12470   1.115   7.553   0.155 -0.1418  0.0922  0.0011
 2367PP      PP12471  14.654   8.089   2.377  0.1705 -0.2273 -0.0737
 2368PP      PP12472   5.981  13.249  12.739  0.3413  0.1253 -0.2897
 2369PP      PP12473   8.100  11.226  12.972 -0.0363  0.0082  0.1383
 2370PP      PP12474   8.365   8.519  12.222  0.1054 -0.0449 -0.1306
 2371PP      PP12475  11.073  13.876  10.129  0.0153  0.0875 -0.0487
 2372PP      PP12476   8.784   1.388  10.392  0.3596  0.0325 -0.0013
 2373PP      PP12477   7.661   4.598   4.252 -0.0237  0.1531 -0.0695
 2374PP      PP12478   7.877   5.169  12.174 -0.0244 -0.1863 -0.0619
 2375PP      PP12479  13.584  10.267   1.813  0.4323 -0.0203  0.1913
 2376PP      PP12480   8.039   7.837   3.397 -0.1561 -0.1703 -0.0096
 2377PP      PP12481  12.455  15.715  12.121  0.0028 -0.4062 -0.1724
 2378PP      PP12482   2.455  10.914   0.712  0.1674 -0.2740 -0.5438
 2379PP      PP12483   7.037   8.475   3.379 -0.0605 -0.3151  0.0097
 2380PP      PP12484  15.530  14.043   8.481 -0.0429  0.1535 -0.0417
 2381PP      PP12485   5.170   0.009   2.690 -0.3076  0.0579  0.0523
 2382PP      PP12486  10.176   9.103  12.081 -0.2936 -0.3061  0.1463
 2383PP      PP12487   0.887   9.694   3.203  0.0290 -0.0456 -0.0975
 2384PP      PP12488  11.675  12.266  13.006 -0.1156  0.1183 -0.1253
 2385PP      PP12489  13.712   2.237   1.475  0.0017  0.2014  0.2123
 2386PP      PP12490   1.638   5.385   0.778 -0.2227 -0.0329 -0.3398
 2387PP      PP12491  11.271   6.262  11.319  0.1933 -0.1638  0.0778
 2388PP      PP12492  10.034  15.385   8.627  0.0740  0.0011 -0.3095
 2389PP      PP12493   4.602   3.355   9.502 -0.2030 -0.0961 -0.0822
 2390PP      PP12494   6.441  12.952   9.520  0.1215  0.1252  0.0180
 2391PP      PP12495   0.845   8.862   4.000 -0.2058  0.0465  0.2469
 2392PP      PP12496  14.087   2.420   3.913  0.0329 -0.1182  0.1077
 2393PP      PP12497  12.188   9.194  11.065  0.0113  0.4355 -0.1411
 2394PP      PP12498  10.935   7.668  13.026  0.1232 -0.1848  0.2292
 2395PP      PP12499   6.869   2.606   8.922  0.1295  0.0203 -0.0347
 2396PP      PP12500  13.485   1.139  13.272 -0.2306  0.0059 -0.1150
 2397PP      PP12501  11.931   1.979   3.674  0.0433 -0.0722  0.2580
 2398PP      PP12502   2.555   0.651   9.267  0.2190 -0.2024  0.3570
 2399PP      PP12503  15.056  13.647   4.483  0.0157  0.0951  0.0591
 2400PP      PP12504  11.682   1.110   1.003 -0.1318 -0.0286  0.1045
 2401PP      PP12505   6.169   7.376   0.791 -0.0752 -0.2311  0.5682
 2402PP      PP12506   5.643   2.824  11.394 -0.1896  0.4139  0.4380
 2403PP      PP12507  11.389   1.203  10.176 -0.0114 -0.1283  0.1995
 2404PP      PP12508   3.534   0.168   0.086 -0.0871  0.1032 -0.0031
 2405PP      PP12509  13.138   0.691   4.288 -0.3306  0.1316  0.1943
 2406PP      PP12510   9.115  14.331   2.708 -0.0984  0.3075  0.0211
 2407PP      PP12511   2.234   1.459   2.999  0.1319  0.3020 -0.2050
 2408PP      PP12512  14.722   5.222  10.120  0.0534  0.0666 -0.0931
 2409PP      PP12513  15.117   4.670  10.171  0.1981 -0.1143 -0.1336
 2410PP      PP12514  14.079  12.274   9.356  0.0483  0.0275  0.0111
 2411PP      PP12515   0.972   0.960  12.468 -0.0728 -0.3131 -0.1314
 2412PP      PP12516   5.987  13.357   1.846  0.1311 -0.0878 -0.1606
 2413PP      PP12517   8.660   5.369   2.497  0.0479 -0.0350 -0.0794
 2414PP      PP12518   5.858   0.701   3.174 -0.0422  0.1107  0.0419
 2415PP      PP12519   1.651   0.918   1.296 -0.2128 -0.0880  0.3888
 2416PP      PP12520   9.851  12.960   9.787  0.0703  0.1316 -0.0549
 2417PP      PP12521   6.620  12.934   9.988 -0.2276 -0.0182  0.0354
 2418PP      PP12522   8.632   4.566   0.261 -0.0325 -0.0524  0.0547
 2419PP      PP12523   7.716  12.112   4.756 -0.0440  0.1755 -0.1437
 2420PP      PP12524  15.335   5.932  10.813 -0.3864 -0.0185 -0.0827
 2421PP      PP12525  12.251  11.700   0.741 -0.1342 -0.0632  0.2553
 2422PP      PP12526   9.348  15.762   8.461 -0.0176 -0.2134  0.0001
 2423PP      PP12527   9.063   2.043  12.929 -0.2681 -0.1223 -0.0769
 2424PP      PP12528   4.176  12.810  10.269  0.1228  0.1455 -0.0448
 2425PP      PP12529   3.012   5.131   4.181 -0.2110 -0.0209  0.1163
 2426PP      PP12530   6.057  11.343   4.390 -0.0978  0.2079  0.4519
 2427PP      PP12531   6.515  15.271   0.142 -0.1480 -0.1168 -0.1901
 2428PP      PP12532  15.150   8.160   2.358  0.0560 -0.0316  0.1784
 2429PP      PP12533  12.630   2.721  13.441  0.3636  0.2137  0.1549
 2430PP      PP12534  12.887  12.024   9.864  0.4833  0.1531  0.3179
 2431PP      PP12535   9.868   4.399   4.038 -0.1454  0.1497 -0.0328
 2432PP      PP12536   5.476   8.879   2.667  0.0187 -0.1566 -0.2467
 2433PP      PP12537   5.632   2.174   4.005  0.0124  0.3103 -0.0710
 2434PP      PP12538  11.059   2.663   4.305 -0.0498 -0.1331 -0.0122
 2435PP      PP12539   5.809   9.286   2.758  0.3335 -0.1462  0.0149
 2436PP      PP12540   4.646   8.639   2.183  0.0285 -0.0950  0.1024
 2437PP      PP12541   5.767   0.324  13.356 -0.0434  0.1322 -0.0018
 2438PP      PP12542   3.588   0.482   4.077  0.0180 -0.0752  0.2312
 2439PP      PP12543   1.355  14.386   2.161  0.3784  0.0388  0.1808
 2440PP      PP12544   2.666  14.356  13.379  0.3026 -0.1234  0.4250
 2441PP      PP12545  11.029  13.420  11.816 -0.1960 -0.1326 -0.3013
 2442PP      PP12546  11.756   6.457   2.419  0.2361  0.2900  0.0298
 2443PP      PP12547  15.649  12.046  10.175  0.0208  0.1285  0.2335
 2444PP      PP12548   9.763  15.099  13.206 -0.0544 -0.3386 -0.0369
 2445PP      PP12549   7.882   5.357   9.763 -0.1468  0.1908  0.0573
 2446PP      PP12550   3.450   0.424   0.734  0.2314 -0.0073 -0.0263
 2447PP      PP12551  14.055   4.818   2.776  0.0595 -0.3180  0.0729
 2448PP      PP12552   3.171   4.161   4.521  0.0782  0.4126  0.1207
 2449PP      PP12553   5.969  14.053   9.777 -0.1159  0.2195 -0.0529
 2450PP      PP12554   5.920   0.601   1.626 -0.0859 -0.2969  0.0424
 2451PP      PP12555  15.433   6.657  12.572  0.1800 -0.0912 -0.2063
 2452PP      PP12556   4.242   6.327   4.482  0.1528  0.2991  0.1589
 2453PP      PP12557   6.560  11.290   2.037  0.0275 -0.0534 -0.1356
 2454PP      PP12558   0.295   6.427  11.373  0.1559  0.0124  0.0023
 2455PP      PP12559   2.706   1.017   1.501 -0.0872 -0.0438 -0.1242
 2456PP      PP12560  12.676  10.689   3.767  0.0519  0.0826  0.1538
 2457PP      PP12561   9.342  14.305  11.092 -0.0160 -0.3884  0.0676
 2458PP      PP12562   4.111  13.852   4.857  0.1174 -0.0118  0.1587
 2459PP      PP12563   1.932   1.970  10.293 -0.1606  0.1288 -0.0295
 2460PP      PP12564   1.662   5.904   0.004  0.3312 -0.4173 -0.1142
 2461PP      PP12565   6.442   9.986   9.606  0.1824 -0.0238  0.2027
 2462PP      PP12566   0.799   8.530   1.577  0.2676 -0.0823 -0.0345
 2463PP      PP12567  12.709  10.411   1.523  0.0556  0.0926  0.0245
 2464PP      PP12568   5.492   8.726   3.838  0.0084  0.3740  0.0860
 2465PP      PP12569   5.333  14.457   9.526  0.2074 -0.1460  0.0607
 2466PP      PP12570  12.880  12.156   2.142 -0.0115  0.0303  0.0304
 2467PP      PP12571   8.567   6.711  13.303 -0.1174  0.1554  0.2624
 2468PP      PP12572   0.566   2.325   2.646 -0.0913  0.0228  0.1717
 2469PP      PP12573  13.093   5.759   0.286 -0.1633  0.0770 -0.2870
 2470PP      PP12574   2.877   7.794   3.706 -0.0102  0.0322 -0.0649
 2471PP      PP12575   6.661   8.893  11.640  0.0849 -0.0373  0.1823
 2472PP      PP12576   2.731  13.799   4.170  0.0161 -0.0138 -0.1575
 2473PP      PP12577  11.796  12.809  11.544  0.3158 -0.2740 -0.1150
 2474PP      PP12578   3.166   4.324  12.668 -0.0813 -0.1820 -0.2556
 2475PP      PP12579  10.587  14.707   0.217  0.2751  0.0282  0.0250
 2476PP      PP12580   2.011   9.882   0.315 -0.0123  0.1141 -0.0748
 2477PP      PP12581  10.180  11.063   9.781  0.0951 -0.1860 -0.0991
 2478PP      PP12582  15.439  10.492   2.330 -0.0287  0.0420 -0.2269
 2479PP      PP12583  14.508  11.676   3.337  0.0385 -0.0804  0.2347
 2480PP      PP12584  12.203   9.012   3.357 -0.0809  0.0472 -0.0852
 2481PP      PP12585   9.725   6.997   0.738 -0.3050  0.1859 -0.1786
 2482PP      PP12586   1.039   8.444   9.718 -0.2854 -0.0281  0.2409
 2483PP      PP12587   0.481   9.826  10.791 -0.0511  0.1361  0.0607
 2484PP      PP12588   3.700   5.564   1.715  0.0829 -0.2394 -0.0788
 2485PP      PP12589   1.761  11.511  10.375 -0.0195 -0.3700  0.1052
 2486PP      PP12590   5.536   4.348   2.082 -0.0339  0.1836 -0.3372
 2487PP      PP12591   5.820   1.260   3.449  0.2092 -0.0394 -0.3965
 2488PP      PP12592   4.780   5.490   1.716 -0.1321  0.0065 -0.0270
 2489PP      PP12593  13.455  13.309   1.894  0.2210 -0.0700  0.2194
 2490PP      PP12594   5.088   3.371   2.564 -0.0291  0.0609 -0.0046
 2491PP      PP12595   2.407  13.261  12.986 -0.0108  0.1766 -0.0489
 2492PP      PP12596  13.635   5.904   3.223  0.1781 -0.2311 -0.1474
 2493PP      PP12597   2.198  13.304  10.647 -0.0260 -0.1613  0.0784
 2494PP      PP12598  11.201   0.332  12.349 -0.1432 -0.1845  0.3655
 2495PP      PP12599  13.238  14.932   1.027 -0.3959 -0.0583  0.3174
 2496PP      PP12600   0.646  12.910   8.703 -0.2497 -0.2197  0.0936
 2497PP      PP12601  15.278  14.601   2.357 -0.3564 -0.0331  0.2513
 2498PP      PP12602   0.555  10.761   4.234  0.1186 -0.4394 -0.3734
 2499PP      PP12603   6.179   1.736  12.915 -0.4254 -0.0174 -0.1081
 2500PP      PP12604  12.211   7.863  11.729  0.0427 -0.0173 -0.3467
 2501PP      PP12605  15.867   8.895  11.029  0.3332 -0.1863  0.0327
 2502PP      PP12606  12.773  15.789   2.881  0.0798 -0.4024 -0.1310
 2503PP      PP12607  10.958   2.679  10.861  0.0385 -0.2470 -0.1270
 2504PP      PP12608   6.861   3.301   0.451 -0.2793  0.1436  0.3277
 2505PP      PP12609  15.295   4.072   9.183  0.0133 -0.0285 -0.2611
 2506PP      PP12610   5.130   4.958   3.350 -0.0541  0.0760 -0.0167
 2507PP      PP12611  11.230   8.172  10.734 -0.0918  0.0630  0.1201
 2508PP      PP12612   4.692  15.877   0.891 -0.0278 -0.1736  0.3917
 2509PP      PP12613  13.916   3.562   4.262  0.1409 -0.0004 -0.0414
 2510PP      PP12614   6.229   7.319   4.390 -0.2657  0.1321 -0.1047
 2511PP      PP12615   3.129  13.661   3.347  0.0158 -0.0508 -0.0132
 2512PP      PP12616  10.352   8.320   1.661 -0.1776  0.0307  0.2169
 2513PP      PP12617  13.643   1.487   1.518  0.0249  0.1040  0.0820
 2514PP      PP12618   1.047   9.539   0.179  0.1025  0.0387 -0.1480
 2515PP      PP12619   9.046   6.523  10.778 -0.0373  0.4022 -0.1539
 2516PP      PP12620   0.261  13.114   8.450  0.2459  0.1969 -0.0992
 2517PP      PP12621   4.971   3.043   3.508 -0.1786  0.1372 -0.0093
 2518PP      PP12622   2.673   2.112   9.477  0.1253  0.0855 -0.1375
 2519PP      PP12623   6.453  10.232   3.618 -0.0693  0.3018 -0.2194
 2520PP      PP12624  15.321   1.655  10.119 -0.1299  0.0839  0.1405
 2521PP      PP12625  11.552  13.380  11.625 -0.1211  0.1578  0.1663
 2522PP      PP12626   4.094  12.509   4.544  0.1594 -0.0729  0.0292
 2523PP      PP12627   4.905   6.605   2.565  0.0922 -0.0012  0.2565
 2524PP      PP12628  10.806   4.430  11.347 -0.0791 -0.1912 -0.0324
 2525PP      PP12629  15.125   6.968   9.873  0.3311  0.6590 -0.1062
 2526PP      PP12630   4.857  11.739   4.123 -0.0240 -0.1854  0.0226
 2527PP      PP12631   1.184  12.201   1.449 -0.0066 -0.0486  0.0308
 2528PP      PP12632   7.934   6.239   9.901 -0.0111  0.0573 -0.0901
 2529PP      PP12633  10.200   5.663   1.041 -0.1763 -0.2361 -0.1534
 2530PP      PP12634  10.804   2.701   1.060 -0.0141  0.0404  0.1623
 2531PP      PP12635  14.309   1.937  12.656 -0.0569  0.0701 -0.3899
 2532PP      PP12636  14.939   4.122  12.024  0.0233 -0.0461 -0.0388
 2533PP      PP12637   4.523   1.108   9.891 -0.3543  0.2040 -0.0565
 2534PP      PP12638   7.659   4.876  10.346 -0.0077 -0.0441 -0.0702
 2535PP      PP12639  14.715   6.552   9.757 -0.1240  0.1567  0.1506
 2536PP      PP12640  12.388  11.236  10.979  0.0627 -0.1661 -0.2997
 2537PP      PP12641  11.163   3.074   3.140 -0.0352  0.0202  0.3407
 2538PP      PP12642   7.309  15.342  12.745  0.0468  0.0029  0.1330
 2539PP      PP12643  15.100  11.536  11.575  0.1096  0.0820 -0.0768
 2540PP      PP12644  10.280   9.539   0.613 -0.0196  0.1920 -0.2725
 2541PP      PP12645   4.364   5.029  12.721  0.1418  0.1675  0.1755
 2542PP      PP12646   0.444   4.226   9.979 -0.0567 -0.3012  0.4050
 2543PP      PP12647  10.130  10.763   1.964 -0.3304  0.0466 -0.1098
 2544PP      PP12648  11.832   1.633   0.152  0.3566 -0.1052 -0.3225
 2545PP      PP12649   5.908   5.298  10.171 -0.2005 -0.0408  0.0404
 2546PP      PP12650   5.582   9.381   1.397 -0.2492 -0.1483 -0.1424
 2547PP      PP12651   1.058   5.951   2.290 -0.0798 -0.0053 -0.2076
 2548PP      PP12652   2.099   9.151   3.904  0.0401  0.1633  0.1398
 2549PP      PP12653  12.274   3.028   3.694 -0.1651  0.1807 -0.4468
 2550PP      PP12654  11.846   5.779  13.385  0.3152  0.0006 -0.0711
 2551PP      PP12655   6.352  13.078   1.676  0.0618  0.0149 -0.0065
 2552PP      PP12656   3.884  13.341   9.063 -0.6898 -0.0176  0.3274
 2553PP      PP12657   3.683  14.453  10.753  0.0867  0.0912  0.2873
 2554PP      PP12658  13.843   3.712   2.788 -0.0877 -0.1251 -0.0194
 2555PP      PP12659  15.549  13.150   2.885  0.2671  0.0745 -0.0776
 2556PP      PP12660   0.384   5.192  11.559  0.0622  0.2524  0.1390
 2557PP      PP12661   3.639   1.408   9.577  0.0485 -0.2217 -0.3426
 2558PP      PP12662   3.687   4.703   3.962  0.2356  0.0437  0.1833
 2559PP      PP12663   5.157  14.880  12.269  0.1134 -0.0667  0.1101
 2560PP      PP12664   0.699  15.218  12.566 -0.2037  0.0931  0.1268
 2561PP      PP12665   5.151   9.922  11.516 -0.1745  0.2254 -0.1201
 2562PP      PP12666   5.583  10.110  10.081 -0.1093 -0.1174  0.0659
 2563PP      PP12667   9.947   4.639  10.265 -0.0582 -0.0532  0.1332
 2564PP      PP12668  15.072  14.280  10.916 -0.0564 -0.6511 -0.3553
 2565PP      PP12669   0.920   4.866  10.641  0.2707  0.3911 -0.3958
 2566PP      PP12670  10.095  10.550   9.852 -0.3430 -0.2523 -0.0893
 2567PP      PP12671   8.273   8.983  11.995  0.0795  0.0282 -0.1334
 2568PP      PP12672   7.905  11.765   9.580  0.0580  0.2144 -0.0050
 2569PP      PP12673  12.237  15.707  11.685 -0.2356 -0.0577  0.2045
 2570PP      PP12674   7.217   4.508  13.090  0.0298 -0.1578 -0.1750
 2571PP      PP12675   3.099   5.446  12.430  0.0013 -0.0165 -0.0887
 2572PP      PP12676  13.053   8.482   2.834  0.2340 -0.2773 -0.2152
 2573PP      PP12677   0.939   8.012   1.191 -0.2214  0.1751  0.0910
 2574PP      PP12678  12.887   2.440   4.673  0.1068 -0.0029 -0.1131
 2575PP      PP12679   0.334   2.908   3.170  0.0306 -0.1656  0.2852
 2576PP      PP12680   6.720  10.304  11.614  0.0927  0.0287  0.0090
 2577PP      PP12681   5.756  11.403   1.696 -0.0165 -0.0107 -0.1855
 2578PP      PP12682   7.819  11.123   0.542 -0.3834 -0.4522  0.0141
 2579PP      PP12683  11.939  13.985   4.188 -0.0891 -0.4366 -0.0868
 2580PP      PP12684   9.264   9.092  10.866  0.1049  0.1927  0.0741
 2581PP      PP12685   1.259   8.274  10.131  0.0157 -0.1749 -0.1075
 2582PP      PP12686   2.960  12.338  11.635 -0.1013 -0.3983 -0.0631
 2583PP      PP12687   6.718   9.869   2.778 -0.0607 -0.2612  0.0314
 2584PP      PP12688   7.266   1.947  12.150 -0.2844 -0.0829 -0.5603
 2585PP      PP12689   1.204  12.621  11.421  0.3269 -0.1178 -0.1045
 2586PP      PP12690  11.255   2.155   0.373  0.1778  0.4287  0.0495
 2587PP      PP12691   9.875   7.670   3.627 -0.2109 -0.0815  0.0647
 2588PP      PP12692  10.465  15.166  11.782  0.0470 -0.0384  0.2270
 2589PP      PP12693  14.438   0.350  13.084 -0.2002 -0.0171  0.0323
 2590PP      PP12694  10.545   7.762   2.443  0.2600  0.1253 -0.1228
 2591PP      PP12695  12.108   8.023   4.075 -0.1257 -0.1687  0.1279
 2592PP      PP12696  15.637   2.227  12.694 -0.1377 -0.2615 -0.1766
 2593PP      PP12697  12.839   9.795  12.521 -0.0157  0.2608  0.1489
 2594PP      PP12698  15.562  14.970   4.222  0.2212 -0.1555  0.2202
 2595PP      PP12699   9.995   0.315   0.584 -0.0916  0.0380  0.1648
 2596PP      PP12700  12.298   4.693   3.853  0.0519  0.0109  0.1378
 2597PP      PP12701   1.430   5.631   2.305 -0.0809  0.0240 -0.1587
 2598PP      PP12702   8.536   0.147  11.763 -0.0966 -0.0322  0.1003
 2599PP      PP12703   8.277  12.517  13.384  0.1641  0.0292  0.0828
 2600PP      PP12704   7.753   1.235   2.922 -0.0312  0.0048 -0.4235
 2601PP      PP12705   7.958  15.565  10.778 -0.0083 -0.1549  0.0893
 2602PP      PP12706   0.870   6.763  12.463  0.1705 -0.3077  0.1495
 2603PP      PP12707   2.260  13.571   9.859  0.1150 -0.3045 -0.1486
 2604PP      PP12708  11.165  11.989  11.256  0.1459  0.2103 -0.2100
 2605PP      PP12709   6.059   6.101  12.674  0.0171 -0.2484  0.3320
 2606PP      PP12710   7.452   7.503   1.750 -0.0644  0.0415 -0.1643
 2607PP      PP12711   6.141   7.770  10.880  0.1038  0.0163 -0.4662
 2608PP      PP12712   8.963   2.392   9.672  0.1923  0.0370 -0.0972
 2609PP      PP12713   6.795   7.157   9.703 -0.3899  0.1508 -0.2745
 2610PP      PP12714  12.636  11.592   0.347  0.0254 -0.0675 -0.0716
 2611PP      PP12715   9.416  13.239   4.307 -0.2193  0.0729 -0.1241
 2612PP      PP12716  15.646   3.328   3.099  0.1975  0.0759 -0.0935
 2613PP      PP12717  13.586  13.162  12.096  0.1189  0.2521 -0.0040
 2614PP      PP12718  12.643   5.944  13.183 -0.0607 -0.0285  0.1277
 2615PP      PP12719   9.708  12.806  11.486  0.0082 -0.0422  0.0433
 2616PP      PP12720  10.036   5.108   3.773 -0.1993  0.0896 -0.0732
 2617PP      PP12721   6.158   1.699  10.800  0.2648 -0.1199  0.0285
 2618PP      PP12722  15.298  15.731   3.520 -0.2448 -0.0646  0.0648
 2619PP      PP12723  13.491  13.149   9.626  0.0794 -0.0352  0.1481
 2620PP      PP12724   3.788   0.439   9.840  0.1851 -0.1332  0.1041
 2621PP      PP12725  14.792   7.663   2.595 -0.0785 -0.0037 -0.0479
 2622PP      PP12726   0.314   5.707  11.787  0.3240  0.3309  0.3067
 2623PP      PP12727   9.265  15.484   3.000  0.0089  0.2676 -0.0795
 2624PP      PP12728   5.435  15.679  11.452  0.3096 -0.0600  0.0518
 2625PP      PP12729   8.240  10.295  12.428  0.0817  0.1032 -0.2056
 2626PP      PP12730  14.031   4.646   1.523 -0.0026 -0.1799 -0.0070
 2627PP      PP12731   2.464   8.909   3.141 -0.1505  0.0939  0.2152
 2628PP      PP12732   6.186  15.822   1.182 -0.0384  0.2894 -0.0273
 2629PP      PP12733  15.625   9.882  12.509 -0.2834 -0.4010  0.0054
 2630PP      PP12734  10.616   3.713   8.698 -0.1932 -0.1950  0.0668
 2631PP      PP12735   5.111   9.927  10.952 -0.0257 -0.3214 -0.2188
 2632PP      PP12736   9.111   5.312  10.665  0.1580  0.2568 -0.1787
 2633PP      PP12737   0.917  10.893   0.627 -0.1399  0.1493  0.0030
 2634PP      PP12738  14.179  10.342   2.790  0.0710  0.2505  0.1486
 2635PP      PP12739   0.086   9.131   4.390 -0.1055 -0.1986 -0.4118
 2636PP      PP12740  11.494   2.709   2.943  0.1280 -0.1006 -0.0182
 2637PP      PP12741   9.403   4.457  11.648 -0.2423  0.1607 -0.0719
 2638PP      PP12742   3.983   2.643  11.505  0.1462  0.0489  0.0429
 2639PP      PP12743   2.946   1.182  11.430  0.1102 -0.0337 -0.2915
 2640PP      PP12744   9.321   0.951   1.956 -0.1413 -0.1910 -0.3638
 2641PP      PP12745   1.122   9.347   3.928 -0.0344  0.0911  0.0388
 2642PP      PP12746   9.776   6.126  10.588 -0.2550 -0.0775  0.0233
 2643PP      PP12747  12.491   9.371   2.978 -0.2666 -0.1934 -0.1922
 2644PP      PP12748   5.089  11.095   9.651 -0.0224  0.1258  0.1645
 2645PP      PP12749  13.208   5.956   1.696  0.0471  0.3125  0.2260
 2646PP      PP12750  12.156  10.070  11.442 -0.0788  0.2657  0.1927
 2647PP      PP12751  15.380  11.709   2.767  0.3048  0.0729  0.0425
 2648PP      PP12752  11.339   0.369   8.792  0.0490  0.2919  0.1709
 2649PP      PP12753   9.521  12.741   4.534  0.0504 -0.3148  0.0177
 2650PP      PP12754  13.856   7.448   4.734 -0.1100  0.1982 -0.0873
 2651PP      PP12755   2.604   9.295   1.025 -0.2048  0.5485  0.0367
 2652PP      PP12756   3.604   9.589   5.065 -0.1528 -0.2391 -0.2535
 2653PP      PP12757   8.710  14.886   0.299 -0.1550  0.0438  0.2648
 2654PP      PP12758   4.364   2.367   1.438  0.1564 -0.1482 -0.0292
 2655PP      PP12759   8.452   3.697   3.463 -0.0937  0.0015 -0.1093
 2656PP      PP12760   3.607   5.639   2.408 -0.2859  0.1222  0.1477
 2657PP      PP12761   5.010   1.123   2.998  0.0442  0.1085  0.0984
 2658PP      PP12762   5.891   3.016   8.915 -0.0379 -0.0046  0.1975
 2659PP      PP12763   5.233   5.814   0.837  0.2508 -0.0336  0.4639
 2660PP      PP12764  13.085   7.661   0.232  0.1723  0.1526  0.5558
 2661PP      PP12765  10.946   3.922   9.212 -0.0265 -0.0702  0.3268
 2662PP      PP12766  14.075   8.937   2.426 -0.0424 -0.1642 -0.1071
 2663PP      PP12767   1.283   6.521   2.414  0.1435  0.3226  0.2687
 2664PP      PP12768  15.261   0.458  12.440 -0.2377 -0.1504  0.0258
 2665PP      PP12769   8.946   1.866   0.748 -0.1817 -0.1706  0.1108
 2666PP      PP12770  10.599   0.417   1.376  0.1820  0.1314  0.0113
 2667PP      PP12771   2.594  11.110   0.272 -0.1553 -0.3469  0.2170
 2668PP      PP12772   9.283  11.178   4.236  0.0780 -0.1658 -0.2321
 2669PP      PP12773  13.986   2.524  11.007  0.0457 -0.0386 -0.0543
 2670PP      PP12774   5.467   9.838  12.600  0.0902 -0.0564 -0.0197
 2671PP      PP12775  15.257   8.290   3.299  0.0068  0.1319  0.1298
 2672PP      PP12776   2.142  14.773   1.712 -0.1221 -0.2420 -0.1445
 2673PP      PP12777  14.036  10.972   9.228 -0.1147  0.1782  0.0017
 2674PP      PP12778  13.894   2.641   9.383  0.1009 -0.2650 -0.1454
 2675PP      PP12779  13.373   8.585   4.172  0.0981  0.1025  0.3676
 2676PP      PP12780  11.863  15.113  11.200  0.0452 -0.0913  0.0084
 2677PP      PP12781   9.321   4.051   4.102  0.3848  0.1427 -0.2424
 2678PP      PP12782   1.654   6.323  10.004  0.2953  0.1031  0.2876
 2679PP      PP12783  14.853   4.295  10.479  0.4311 -0.0821 -0.1044
 2680PP      PP12784   0.544   0.214  10.866 -0.0021  0.0608  0.0869
 2681PP      PP12785   6.350  14.859   2.368 -0.1657  0.2221  0.0448
 2682PP      PP12786   1.126  12.807   8.487  0.0402  0.0316 -0.0599
 2683PP      PP12787   8.182   9.482   5.185  0.0260  0.2369  0.0628
 2684PP      PP12788   7.074   9.654  12.838 -0.0567 -0.0864 -0.1967
 2685PP      PP12789   0.320   0.919   1.569 -0.0580  0.0721 -0.1081
 2686PP      PP12790   9.788   8.402  11.338  0.0198 -0.0424 -0.0869
 2687PP      PP12791   1.440   1.029  10.661 -0.1441  0.1831  0.0144
 2688PP      PP12792   7.139   5.818   9.772  0.6303  0.0478 -0.0401
 2689PP      PP12793  14.561   4.259   2.400 -0.0856 -0.0420 -0.2080
 2690PP      PP12794   7.773  12.221  11.357  0.0645 -0.0209  0.0884
 2691PP      PP12795   0.720   6.658   0.166  0.0573 -0.0092 -0.0198
 2692PP      PP12796   2.840  11.872   0.548  0.2069  0.1920  0.0870
 2693PP      PP12797   4.753   2.716   3.828 -0.0180 -0.1282 -0.1085
 2694PP      PP12798  11.943   0.008  12.935  0.3455 -0.1053 -0.3197
 2695PP      PP12799   4.561   1.983   3.111 -0.0262  0.2779  0.1128
 2696PP      PP12800   0.996  15.520   1.876  0.1290 -0.2099 -0.3112
 2697PP      PP12801  12.497   8.070   8.956  0.0377 -0.0060 -0.3197
 2698PP      PP12802   5.352   6.327  11.390  0.1941 -0.0697  0.2201
 2699PP      PP12803  14.542  11.832  10.724 -0.2129  0.2093  0.1023
 2700PP      PP12804  11.044   1.560  10.108 -0.1064 -0.3337 -0.0411
 2701PP      PP12805  15.249   2.094  10.747 -0.2885 -0.0293 -0.2200
 2702PP      PP12806  11.573   3.552   3.378  0.0954 -0.0075  0.1654
 2703PP      PP12807  12.502   7.397   0.294  0.0660  0.3309 -0.0623
 2704PP      PP12808   1.904   6.607   2.685  0.1779 -0.0521 -0.0418
 2705PP      PP12809  15.232   1.791   1.740 -0.0188 -0.1975  0.3427
 2706PP      PP12810  14.244  13.398  11.452  0.1995  0.2117 -0.0621
 2707PP      PP12811   6.186  10.546  10.980 -0.1919 -0.0396  0.3307
 2708PP      PP12812   9.563  11.805  11.391  0.0560  0.0031 -0.1912
 2709PP      PP12813   6.095   8.158   2.238 -0.1593 -0.0140 -0.3083
 2710PP      PP12814   1.046   2.178   1.319 -0.0044  0.0236 -0.3079
 2711PP      PP12815   2.583  15.829   3.781  0.0486 -0.0887  0.1246
 2712PP      PP12816   2.205  10.808   1.110 -0.2018 -0.0231 -0.2355
 2713PP      PP12817   6.497   0.399   2.737 -0.0923 -0.4264  0.1203
 2714PP      PP12818   4.556   8.549  10.819  0.2659 -0.2194  0.1507
 2715PP      PP12819   4.369   7.727   5.757  0.2811 -0.1868  0.2120
 2716PP      PP12820   0.372   2.164   1.363  0.1107 -0.3965 -0.0062
 2717PP      PP12821   4.401   1.027   4.430  0.1902 -0.2948 -0.2490
 2718PP      PP12822   8.137   2.643  11.869 -0.1598 -0.2539 -0.2693
 2719PP      PP12823   0.826   6.191  10.595 -0.2152 -0.0976 -0.0035
 2720PP      PP12824   6.376   0.305   0.813 -0.0194 -0.1836 -0.0353
 2721PP      PP12825   4.693   4.893   0.084 -0.0583 -0.3086 -0.1324
 2722PP      PP12826   0.007  12.421  11.921 -0.0859  0.3356  0.2816
 2723PP      PP12827  10.699   0.946  11.407 -0.1392 -0.4032  0.2288
 2724PP      PP12828   7.542   3.596   2.729  0.0715 -0.0395 -0.1522
 2725PP      PP12829   0.949   3.097  10.420  0.1040  0.2797 -0.2081
 2726PP      PP12830   5.408   5.005  13.126 -0.0442 -0.2425 -0.1912
 2727PP      PP12831  11.686  11.587   3.091  0.0409 -0.0458 -0.4061
 2728PP      PP12832   9.717  12.143   9.100  0.2765 -0.0325 -0.2635
 2729PP      PP12833   3.815   8.988   3.845 -0.1185  0.0477 -0.2037
 2730PP      PP12834   1.411   7.236  13.147 -0.0328 -0.3173 -0.0603
 2731PP      PP12835  14.266   5.056   3.211  0.0307 -0.4309 -0.2289
 2732PP      PP12836   1.817   3.125   1.766 -0.3295  0.0444  0.0442
 2733PP      PP12837   5.671   9.641  10.267 -0.0987 -0.0189 -0.0015
 2734PP      PP12838   8.422  12.457  10.043  0.0612 -0.0613  0.2740
 2735PP      PP12839  14.862   0.160   2.602  0.0495  0.1387  0.1148
 2736PP      PP12840  12.438   0.005  13.015  0.1323  0.0810  0.1722
 2737PP      PP12841   7.254  13.363   3.363  0.2025 -0.3395  0.0269
 2738PP      PP12842   3.212   5.021  13.297 -0.0715 -0.4401  0.0709
 2739PP      PP12843   8.200   4.658   2.467 -0.0637 -0.1347  0.0865
 2740PP      PP12844  10.708  12.982   2.913  0.0455  0.0912 -0.1368
 2741PP      PP12845   9.332   8.135  11.688  0.0490  0.0976 -0.1768
 2742PP      PP12846   9.296   5.864   1.254 -0.1899  0.1073  0.0895
 2743PP      PP12847   7.380   6.329  11.919  0.0257 -0.0846 -0.0027
 2744PP      PP12848   4.013   6.181   3.273  0.1735  0.1300  0.2044
 2745PP      PP12849   4.162   1.464  13.273  0.0038  0.0295  0.0037
 2746PP      PP12850   4.978  13.598   0.705  0.0284  0.0756  0.0369
 2747PP      PP12851  13.187  14.870   9.761 -0.1164 -0.0820 -0.2880
 2748PP      PP12852  11.211   6.129   3.825  0.0332  0.0770 -0.0785
 2749PP      PP12853   0.450   5.736   3.173 -0.2725  0.1992  0.2751
 2750PP      PP12854   8.394   6.374  12.491 -0.0655  0.1356 -0.4283
 2751PP      PP12855   3.682   5.784  13.400  0.0552 -0.4159  0.0339
 2752PP      PP12856  15.534  13.307   0.281  0.0536  0.0141 -0.0605
 2753PP      PP12857  11.167  14.857   8.990  0.2425 -0.3277  0.0072
 2754PP      PP12858  13.331   3.487  12.757 -0.0939 -0.2653 -0.1878
 2755PP      PP12859   7.937  11.209   1.586 -0.0905  0.2106  0.3885
 2756PP      PP12860   5.388   3.399   1.634 -0.2229  0.4100 -0.4306
 2757PP      PP12861   0.958  14.297  13.413 -0.3969 -0.0143 -0.0227
 2758PP      PP12862   0.646   4.545   3.957 -0.3504  0.1405 -0.0865
 2759PP      PP12863   0.707  12.015   1.342  0.0649 -0.1960 -0.1032
 2760PP      PP12864  10.749   3.548  10.774  0.1338  0.1208  0.0310
 2761PP      PP12865  14.247   8.728  12.498 -0.2382  0.0616  0.3151
 2762PP      PP12866   2.107   9.901   2.762  0.0988 -0.2457 -0.0870
 2763PP      PP12867   5.265  13.073   0.797  0.1390 -0.0925 -0.0138
 2764PP      PP12868   8.413   2.002   0.084  0.2809 -0.1549 -0.0319
 2765PP      PP12869   4.194  12.327   1.302 -0.1157 -0.0449 -0.1814
 2766PP      PP12870  12.571  10.001   8.700  0.1495  0.1985 -0.0983
 2767PP      PP12871   3.284  13.445  12.598  0.0974  0.0856 -0.2847
 2768PP      PP12872  12.113  12.815   7.906 -0.1726 -0.4047  0.0527
 2769PP      PP12873   4.453   0.868   3.290 -0.0543  0.2479 -0.0641
 2770PP      PP12874  12.796   4.848  12.156 -0.1499 -0.0119  0.2434
 2771PP      PP12875   2.399   4.718   9.234 -0.4154  0.0583  0.0331
 2772PP      PP12876   5.623  14.205  12.525 -0.2274 -0.1557  0.1101
 2773PP      PP12877   3.900  11.705  10.864  0.3511 -0.1295 -0.0527
 2774PP      PP12878  13.970   2.550   0.607  0.4074  0.1589  0.0943
 2775PP      PP12879   3.597  13.383   0.203 -0.1950 -0.1106  0.0487
 2776PP      PP12880   1.067   1.344   0.146 -0.1292  0.2106  0.1273
 2777PP      PP12881   5.871  12.900   1.585 -0.4039  0.0914 -0.0232
 2778PP      PP12882   8.577   1.408   0.860  0.0218 -0.2536 -0.0762
 2779PP      PP12883  14.431   5.507  13.277  0.1440 -0.3306 -0.1507
 2780PP      PP12884   6.403   6.744   2.783  0.1112 -0.3419  0.1285
 2781PP      PP12885  11.180   1.661   4.255 -0.2829  0.0554 -0.2233
 2782PP      PP12886   3.156   5.249   0.498  0.2361 -0.0338 -0.1405
 2783PP      PP12887  13.442  15.694   9.331 -0.2162 -0.0171 -0.2984
 2784PP      PP12888   1.527  14.818   2.362 -0.0596 -0.0378 -0.1251
 2785PP      PP12889   2.926   0.672   0.988 -0.1279 -0.0934  0.1489
 2786PP      PP12890   5.513  14.866  11.887  0.0463  0.2732 -0.0718
 2787PP      PP12891  13.143   8.802   0.284  0.0301  0.1084  0.0572
 2788PP      PP12892   2.164  11.718   1.458  0.4802 -0.0619 -0.0643
 2789PP      PP12893   6.420   4.383   9.794  0.1507  0.2466 -0.1634
 2790PP      PP12894   0.558   5.101   4.648  0.0396 -0.0572 -0.1187
 2791PP      PP12895   9.087   3.978  10.234  0.0168  0.1896 -0.1771
 2792PP      PP12896  13.453   5.608  12.872 -0.0814  0.2551 -0.0023
 2793PP      PP12897   3.746  11.913   2.325 -0.1583 -0.3489  0.0543
 2794PP      PP12898   7.783  11.421   5.059 -0.1528 -0.0741  0.0616
 2795PP      PP12899  10.103   3.713   8.168  0.2823  0.2560  0.0922
 2796PP      PP12900  10.265  12.825   9.456 -0.0158 -0.1221 -0.2104
 2797PP      PP12901  10.331  11.835   3.203  0.3537 -0.1662  0.0969
 2798PP      PP12902   3.465   7.360  11.931 -0.1204 -0.1516  0.1610
 2799PP      PP12903  11.677   4.719  12.222  0.2865  0.1342  0.2228
 2800PP      PP12904   5.693  12.565   3.273 -0.0104 -0.1015  0.2041
 2801PP      PP12905  11.041   7.148  11.796  0.1558 -0.0568  0.1142
 2802PP      PP12906   8.070   6.369  10.874  0.0330 -0.0820 -0.1023
 2803PP      PP12907   2.513  12.381  11.943  0.1643  0.1981 -0.4076
 2804PP      PP12908  15.782   6.383  10.197 -0.1256  0.2919  0.3464
 2805PP      PP12909   0.784  12.497   3.094  0.2232 -0.2434 -0.1222
 2806PP      PP12910  10.508   5.601   2.955 -0.0097 -0.0330 -0.3863
 2807PP      PP12911  14.442   3.615  10.416 -0.1286 -0.2178 -0.0221
 2808PP      PP12912  10.170  14.099   0.705 -0.3036 -0.2408 -0.0165
 2809PP      PP12913   2.141   6.221  10.835  0.0059 -0.0843 -0.3355
 2810PP      PP12914   7.590   4.359   8.723 -0.0484 -0.0322  0.1273
 2811PP      PP12915   1.019   4.468  10.934 -0.3979  0.0725  0.1746
 2812PP      PP12916   3.933  14.626   4.074 -0.0010 -0.2219 -0.3766
 2813PP      PP12917   6.551   1.828  13.241 -0.1973 -0.1842  0.2644
 2814PP      PP12918   5.172   0.697   2.112  0.0338  0.0782 -0.2451
 2815PP      PP12919   7.334  15.686  10.929 -0.0378 -0.0109 -0.2985
 2816PP      PP12920   4.194  15.219  12.386  0.0514  0.3197  0.1401
 2817PP      PP12921  13.092   4.317   2.500 -0.0387  0.1325 -0.1915
 2818PP      PP12922   1.398  11.909   9.547 -0.1363 -0.2729  0.2316
 2819PP      PP12923  12.105   8.940   9.970 -0.1012 -0.0380 -0.3006
 2820PP      PP12924  14.180   7.296  11.435 -0.0132  0.2149  0.1922
 2821PP      PP12925   7.042   3.862   2.952  0.0735  0.1892 -0.3500
 2822PP      PP12926   7.080  15.361   4.226 -0.1972  0.0703 -0.1965
 2823PP      PP12927  10.361   1.449   0.076 -0.3656  0.0443 -0.1559
 2824PP      PP12928   8.736   6.232   0.095  0.0076 -0.1777 -0.1474
 2825PP      PP12929   3.319  12.013   3.307  0.5172  0.3953 -0.1345
 2826PP      PP12930   2.751   9.012   4.859 -0.0458 -0.1077 -0.0411
 2827PP      PP12931  14.654   9.855  12.401 -0.0755 -0.0565  0.3115
 2828PP      PP12932   0.303  13.507   3.219  0.0745  0.1387  0.1291
 2829PP      PP12933   7.550  12.222   1.680  0.0342 -0.2732  0.1014
 2830PP      PP12934   0.435  13.778  11.865  0.2960 -0.1147 -0.0347
 2831PP      PP12935   3.380   3.505  12.730 -0.2696  0.1130 -0.0330
 2832PP      PP12936   6.978  10.364   3.493  0.0018 -0.1147  0.0787
 2833PP      PP12937   6.537  12.184  11.222 -0.0359  0.1334  0.2422
 2834PP      PP12938   5.399   1.748   4.142 -0.1775  0.0755 -0.1154
 2835PP      PP12939  12.345   4.028  11.022  0.0448  0.0954 -0.0042
 2836PP      PP12940  15.726   5.070  10.626 -0.0801  0.1113  0.2771
 2837PP      PP12941   6.404   1.881   1.482 -0.2363 -0.3193  0.3263
 2838PP      PP12942  15.248  10.076  12.763  0.0368  0.0496  0.0354
 2839PP      PP12943  10.419   6.549   9.994 -0.0166  0.1058  0.0047
 2840PP      PP12944   9.201   5.456  11.325  0.0011 -0.1252  0.0530
 2841PP      PP12945   2.678   5.188  13.105 -0.1189 -0.1864 -0.2261
 2842PP      PP12946   9.206  13.867  10.440 -0.3218 -0.2374  0.1348
 2843PP      PP12947  11.068   4.208   8.830 -0.0427  0.0556 -0.0178
 2844PP      PP12948   8.530  13.975  12.228 -0.1683  0.0228  0.1184
 2845PP      PP12949  10.399  15.735  11.907  0.2170 -0.0905 -0.0637
 2846PP      PP12950  12.871  14.248   1.687 -0.1358 -0.1284  0.4134
 2847PP      PP12951   5.386   2.917   1.769  0.1871  0.0741  0.1978
 2848PP      PP12952   3.712   9.882   2.210  0.1466  0.0147 -0.1098
 2849PP      PP12953   1.576  13.705   3.663 -0.1015 -0.4098  0.3293
 2850PP      PP12954  12.450   8.643  11.840 -0.0848  0.2629  0.0473
 2851PP      PP12955   3.881   6.301   2.743  0.0566  0.0063  0.1240
 2852PP      PP12956   5.432   7.469  13.357  0.0783 -0.1456 -0.1608
 2853PP      PP12957  11.535   7.382   2.148  0.1131 -0.3046 -0.0373
 2854PP      PP12958   1.041  11.548  12.461 -0.0215 -0.0649 -0.0921
 2855PP      PP12959  12.354   1.662   9.376  0.1365  0.1568 -0.4165
 2856PP      PP12960   5.336  11.795  10.935 -0.2129 -0.2830  0.0685
 2857PP      PP12961   8.193  15.805   2.957  0.0648  0.1965  0.2154
 2858PP      PP12962   2.513   3.525   0.737  0.0363  0.0701 -0.1497
 2859PP      PP12963   9.270   1.728   4.100 -0.2312  0.2778 -0.1359
 2860PP      PP12964   9.260   8.149   1.481  0.3042 -0.1070 -0.4224
 2861PP      PP12965  14.079   9.137  12.734 -0.0875  0.2676 -0.1452
 2862PP      PP12966   6.394  14.452  10.545  0.0288 -0.0132  0.3367
 2863PP      PP12967  10.685   0.709   3.170  0.0206 -0.1997 -0.2194
 2864PP      PP12968   2.210   2.608   1.360 -0.0115  0.2502  0.1491
 2865PP      PP12969  12.216   6.948   2.578  0.0516  0.0949  0.1784
 2866PP      PP12970  10.444   8.934   0.364  0.0909 -0.4460  0.3369
 2867PP      PP12971   5.171  12.485  11.791  0.0821  0.0275 -0.0225
 2868PP      PP12972  10.198  15.891   3.829 -0.2393 -0.0971  0.2143
 2869PP      PP12973  13.128   3.671   0.284 -0.0172  0.0731  0.0941
 2870PP      PP12974   9.770   5.155   4.231  0.3436 -0.1031 -0.0563
 2871PP      PP12975   0.143  12.657   2.825  0.1186  0.2020  0.2235
 2872PP      PP12976  11.491   3.489   0.129 -0.0730 -0.2194 -0.0344
 2873PP      PP12977   0.301   8.509  11.105  0.2940 -0.1705 -0.2933
 2874PP      PP12978  15.051   4.710   0.841  0.2370  0.1079  0.2980
 2875PP      PP12979   3.972  14.825   0.770 -0.3043 -0.1329  0.1450
 2876PP      PP12980   4.880   3.745  10.580 -0.1262  0.0838  0.0715
 2877PP      PP12981   4.134   9.448  12.788 -0.1398 -0.0663 -0.1867
 2878PP      PP12982  11.127   9.690   8.979 -0.1407 -0.0824  0.0314
 2879PP      PP12983   3.914   3.072   9.282  0.0435  0.0707  0.0687
 2880PP      PP12984  10.974   2.727   2.084  0.1028 -0.1697 -0.1435
 2881PP      PP12985   7.329  13.457  12.928 -0.1293  0.0205  0.1147
 2882PP      PP12986   5.842   5.468  12.268 -0.0798 -0.0973  0.1345
 2883PP      PP12987   9.376   0.430   3.673 -0.2261 -0.2384  0.0140
 2884PP      PP12988  11.962  15.401   2.516  0.2387  0.0415  0.0408
 2885PP      PP12989  11.321  13.826   3.069 -0.0176 -0.0199 -0.3352
 2886PP      PP12990  13.033   4.951  10.873 -0.2354  0.0039 -0.0913
 2887PP      PP12991   5.294  10.801   4.422  0.0312  0.1270 -0.1892
 2888PP      PP12992   4.351  14.118   1.679 -0.1888  0.2234  0.0382
 2889PP      PP12993   9.926   1.109   2.772  0.5110 -0.0639  0.2207
 2890PP      PP12994  10.361  15.252   1.694 -0.2153  0.1021 -0.1459
 2891PP      PP12995   1.248  11.053  10.635 -0.1024 -0.1339 -0.1855
 2892PP      PP12996  12.014   2.577   4.483 -0.0630  0.1646 -0.0007
 2893PP      PP12997  14.982  15.824  11.594  0.1455  0.0830 -0.0134
 2894PP      PP12998   5.975   5.160   2.232 -0.1496 -0.0177  0.1248
 2895PP      PP12999  11.174  12.117   1.582 -0.0691  0.2025  0.0227
 2896PP      PP13000   8.001   4.545  10.184  0.4586 -0.0687  0.3315
 2897PP      PP13001   4.581   3.345  12.991 -0.0212  0.0343  0.4883
 2898PP      PP13002  10.087  12.666   8.707 -0.1757  0.0956  0.2613
 2899PP      PP13003  10.691   6.351  12.339  0.1816  0.0002 -0.1698
 2900PP      PP13004   9.498  10.619   0.314  0.0009 -0.0757 -0.1481
 2901PP      PP13005   7.088   8.341  12.360  0.0900 -0.0236 -0.0440
 2902PP      PP13006   1.400  11.830   2.480 -0.1312 -0.0976  0.0083
 2903PP      PP13007  10.241   2.645   1.016 -0.0003 -0.1303  0.0636
 2904PP      PP13008   7.360  14.081  12.221 -0.2030 -0.1340 -0.3153
 2905PP      PP13009   8.604  10.554   1.191 -0.0538  0.1809 -0.0801
 2906PP      PP13010  10.059   9.049   2.544  0.2748 -0.2426 -0.1537
 2907PP      PP13011   9.707   6.489   0.357 -0.0659 -0.1197 -0.0315
 2908PP      PP13012  13.168  12.659   9.477  0.4454 -0.0459  0.0058
 2909PP      PP13013  14.316  12.307   3.812  0.1393 -0.0962  0.0509
 2910PP      PP13014  14.339  14.927   9.108  0.0255 -0.1846 -0.2346
 2911PP      PP13015   5.641  11.122  11.315  0.2677 -0.3181  0.1472
 2912PP      PP13016  12.689   0.036  12.516 -0.0990  0.0666 -0.1993
 2913PP      PP13017   8.555   2.442   1.378  0.4102  0.3531 -0.1063
 2914PP      PP13018   4.957  11.980  13.189  0.1634 -0.2688  0.2932
 2915PP      PP13019   8.611   8.157  11.989  0.0684 -0.0784  0.3122
 2916PP      PP13020   2.060  13.575   2.801  0.3489  0.1040 -0.0117
 2917PP      PP13021   5.137  13.606   9.300  0.0424 -0.0782  0.0660
 2918PP      PP13022   8.082   4.359  11.117 -0.1388 -0.0394  0.0528
 2919PP      PP13023  11.689   5.247   3.521  0.0890 -0.0110  0.0941
 2920PP      PP13024   9.409  12.224   1.132  0.0860  0.1590  0.0104
 2921PP      PP13025   2.942  15.012   1.761 -0.2510 -0.1398  0.0603
 2922PP      PP13026   0.343  11.871   1.672 -0.0310 -0.1306  0.1071
 2923PP      PP13027   0.430  14.132   0.307 -0.0579 -0.0802  0.0423
 2924PP      PP13028   7.997   2.937  11.316 -0.0656 -0.0621  0.2613
 2925PP      PP13029   4.003  13.255   8.479 -0.2327 -0.0141  0.0239
 2926PP      PP13030   5.837   9.013  10.027 -0.1549 -0.0442 -0.0995
 2927PP      PP13031  11.064   0.767   8.971  0.2748 -0.0501  0.0174
 2928PP      PP13032  15.054  11.218   0.966 -0.1320  0.0857 -0.0584
 2929PP      PP13033  15.170   3.320  12.945 -0.2302 -0.2431  0.0162
 2930PP      PP13034  15.164   3.133   9.015 -0.4231  0.2894 -0.1831
 2931PP      PP13035  11.872   9.698  12.756 -0.1323  0.0112  0.1170
 2932PP      PP13036   4.614  13.150  12.435 -0.0109  0.1203 -0.1032
 2933PP      PP13037  10.223   7.554   8.740  0.1392 -0.1531  0.0169
 2934PP      PP13038  13.326   9.290   9.081 -0.0725 -0.0831  0.3839
 2935PP      PP13039   3.520  10.194   0.353 -0.1201 -0.2126  0.2899
 2936PP      PP13040  15.176   4.307   1.178 -0.1021  0.2291  0.2789
 2937PP      PP13041  13.546   4.157   3.033 -0.0751  0.2717 -0.1618
 2938PP      PP13042   1.387  15.570  11.158 -0.0401  0.1316 -0.0748
 2939PP      PP13043   9.547   7.820  13.365 -0.0495  0.2566  0.0452
 2940PP      PP13044  10.259  13.070   8.370  0.1076 -0.0097 -0.0006
 2941PP      PP13045  11.267   4.430  10.970 -0.0293  0.2010 -0.1621
 2942PP      PP13046   6.029   5.015   0.938 -0.1801 -0.1347  0.1766
 2943PP      PP13047   9.062  14.322   9.426 -0.0749  0.0265  0.1239
 2944PP      PP13048   0.482   4.518  10.916  0.0009 -0.1401 -0.1233
 2945PP      PP13049   1.386  10.992  13.453 -0.1979  0.0440 -0.0272
 2946PP      PP13050   5.492   1.508   3.056  0.1855 -0.1753  0.3099
 2947PP      PP13051  10.718   3.579  12.969  0.3991  0.0186  0.1913
 2948PP      PP13052   5.075   6.840   3.882  0.2249 -0.0887 -0.0987
 2949PP      PP13053   8.052   3.410   1.786 -0.1298  0.0830 -0.0061
 2950PP      PP13054  14.832   1.483   3.047  0.1430 -0.0314  0.0073
 2951PP      PP13055  11.094   4.958  12.138  0.0027 -0.0517 -0.1093
 2952PP      PP13056  10.645  13.906   0.358  0.2725  0.6099 -0.1062
 2953PP      PP13057  14.151   5.880  10.819  0.1744 -0.3270  0.0627
 2954PP      PP13058   0.474   3.911   0.391 -0.3792 -0.1049  0.2481
 2955PP      PP13059   6.676  10.429   3.127 -0.1472 -0.1461  0.0326
 2956PP      PP13060  13.730   7.483  11.328  0.0883  0.2043 -0.1556
 2957PP      PP13061  14.848   3.844  11.387  0.1365 -0.0753 -0.2709
 2958PP      PP13062   8.975  10.931  13.109  0.1360 -0.3235  0.0461
 2959PP      PP13063   3.980  12.897   0.958  0.0243  0.1144  0.0442
 2960PP      PP13064   5.627   8.784   0.615  0.0465 -0.0665  0.3007
 2961PP      PP13065   8.554   3.668  12.378  0.1112 -0.2728 -0.3156
 2962PP      PP13066   9.871   6.814  11.964 -0.0543  0.1639  0.2786
 2963PP      PP13067  11.382   6.351  12.449  0.3497  0.0943  0.0515
 2964PP      PP13068   3.933  15.511   1.391 -0.1678 -0.1252  0.2490
 2965PP      PP13069  11.744   5.212  11.459 -0.0671  0.2986 -0.2521
 2966PP      PP13070   5.151   0.995   1.732  0.2780 -0.2145 -0.0586
 2967PP      PP13071  14.700   0.641   0.977 -0.0794 -0.0603 -0.1379
 2968PP      PP13072  10.871  12.441   8.114 -0.2286 -0.1473  0.4873
 2969PP      PP13073   8.418   9.019   9.972 -0.0916  0.0147 -0.0560
 2970PP      PP13074   6.234  11.469   3.574 -0.2336 -0.0926 -0.2068
 2971PP      PP13075  11.848   2.815   8.699 -0.2581 -0.0783  0.0316
 2972PP      PP13076   7.736   4.829   3.798  0.0552 -0.0941 -0.0430
 2973PP      PP13077   6.213  10.968  10.599 -0.2752 -0.2134 -0.1515
 2974PP      PP13078   4.015  14.431  11.566  0.2889  0.1843 -0.1459
 2975PP      PP13079  13.027   1.019  11.196  0.0817 -0.1726 -0.0678
 2976PP      PP13080   7.253   1.891   3.473 -0.1729 -0.0228  0.0231
 2977PP      PP13081   6.357   6.820  10.605  0.0137 -0.2111 -0.1376
 2978PP      PP13082  10.976  10.832   0.446  0.0719  0.1990  0.3221
 2979PP      PP13083   2.104  10.568   9.046 -0.2196 -0.2317 -0.2052
 2980PP      PP13084   3.640   6.246  10.694  0.2084 -0.0123  0.1191
 2981PP      PP13085  14.658  13.265   8.637  0.1420  0.1770 -0.1149
 2982PP      PP13086   0.132   3.121   2.765  0.0280 -0.1293 -0.1228
 2983PP      PP13087  13.039  12.447   8.997  0.0107 -0.0338 -0.0142
 2984PP      PP13088   7.040   1.086   8.638 -0.0040  0.0070 -0.0094
 2985PP      PP13089   8.506   7.132   0.681  0.1317 -0.1122 -0.3755
 2986PP      PP13090  12.947   8.105   3.181  0.3180 -0.4136  0.1869
 2987PP      PP13091   2.359   2.682  13.167  0.1852 -0.1874  0.3418
 2988PP      PP13092   8.328  14.106   2.218 -0.1700  0.1241  0.2024
 2989PP      PP13093  15.156  15.388   8.738  0.4732  0.1115  0.1199
 2990PP      PP13094   3.058   9.068  10.476 -0.4870  0.3141 -0.1718
 2991PP      PP13095   0.971  14.000  10.047 -0.2143 -0.0895 -0.0218
 2992PP      PP13096  12.407   6.895   3.221 -0.0553 -0.0179 -0.2876
 2993PP      PP13097   0.508   4.613   1.781  0.1434  0.0985  0.0852
 2994PP      PP13098   8.036   0.037   3.715 -0.2707 -0.1101  0.2864
 2995PP      PP13099   7.242  13.151   1.176 -0.0484  0.0771  0.2770
 2996PP      PP13100   0.487  13.901   2.065  0.2755 -0.1683 -0.3951
 2997PP      PP13101   1.392   8.397  11.949 -0.2225 -0.0718 -0.1351
 2998PP      PP13102   9.885  12.765   0.585  0.0030 -0.0139 -0.0524
 2999PP      PP13103   7.449   0.804   2.759  0.0155  0.0591 -0.2112
 3000PP      PP13104   9.115   9.901   2.647 -0.0250 -0.0512 -0.0283
 3001PP      PP13105   4.115   3.467   1.678  0.0651 -0.3117  0.1384
 3002PP      PP13106  11.926  10.684  11.379 -0.0013  0.1114  0.0604
 3003PP      PP13107  10.769  14.656  11.204 -0.2481 -0.0312  0.1976
 3004PP      PP13108   1.314   8.692  10.514  0.0292  0.1375 -0.0491
 3005PP      PP13109   4.879  10.906  10.964  0.1270  0.2543 -0.3268
 3006PP      PP13110  14.333  14.845   1.806  0.2249 -0.1889  0.2934
 3007PP      PP13111   6.286  13.697  12.152  0.1117  0.2574  0.0616
 3008PP      PP13112  10.320  12.436  13.281 -0.1083 -0.1179 -0.2870
 3009PP      PP13113   9.735  15.794  10.583  0.1898 -0.4812  0.0836
 3010PP      PP13114   5.301  13.601   1.243  0.0022 -0.0137  0.2534
 3011PP      PP13115   9.114   8.675  11.146  0.3732 -0.2734  0.0954
 3012PP      PP13116   7.639  11.766  10.570  0.0032  0.0369 -0.0887
 3013PP      PP13117   0.535   9.726  12.316  0.0151 -0.0043 -0.1236
 3014PP      PP13118   7.314   4.453   9.664  0.0289 -0.1405  0.2809
 3015PP      PP13119   4.854   4.706   9.778 -0.0581  0.2130 -0.2182
 3016PP      PP13120   9.757   5.136   8.468  0.2533  0.1979 -0.3494
 3017PP      PP13121  12.852   3.546   3.551 -0.0754 -0.0267  0.3277
 3018PP      PP13122  10.862   0.430   9.609  0.0289 -0.2374 -0.1019
 3019PP      PP13123   5.702  10.536   4.565 -0.0508  0.1909 -0.0361
 3020PP      PP13124   1.113   0.969   9.824  0.2987 -0.0196 -0.1037
 3021PP      PP13125  10.591   5.897  11.083  0.3512 -0.1905 -0.2161
 3022PP      PP13126   3.806   8.682   3.385 -0.0749  0.0257 -0.3290
 3023PP      PP13127  10.021   9.301  12.562 -0.1065  0.0855  0.0495
 3024PP      PP13128   8.693   1.492   3.177  0.2180  0.2612  0.0669
 3025PP      PP13129   9.688   1.326   0.753  0.3881  0.2180  0.0600
 3026PP      PP13130  14.218  11.586   9.931  0.0987 -0.2539 -0.1630
 3027PP      PP13131  14.571  15.887  12.765  0.1277  0.0450  0.4221
 3028PP      PP13132  11.990   0.311   1.362 -0.2910  0.1802  0.0838
 3029PP      PP13133  13.539   3.216  10.787  0.2311 -0.1321 -0.1043
 3030PP      PP13134   4.233  14.395   2.095  0.1078 -0.1505  0.2977
 3031PP      PP13135   0.553  15.813   9.592  0.1500  0.0808  0.3138
 3032PP      PP13136  13.467   2.336   1.890  0.0459 -0.2988 -0.0595
 3033PP      PP13137   4.066   5.294   0.835  0.4182  0.0562  0.1953
 3034PP      PP13138   8.022   4.551  11.631 -0.1517  0.1766 -0.5294
 3035PP      PP13139   5.262   4.443  10.939  0.0574 -0.1258  0.4207
 3036PP      PP13140   9.254   4.805  10.948  0.2618 -0.1867 -0.2434
 3037PP      PP13141  13.521   2.426   0.834 -0.0530  0.1185  0.0356
 3038PP      PP13142   2.566   4.488   9.639  0.0098 -0.1519 -0.3023
 3039PP      PP13143   9.389  14.000   1.054  0.4956  0.0633 -0.1012
 3040PP      PP13144  12.074  10.435  10.735 -0.0562 -0.2960 -0.1017
 3041PP      PP13145   0.892   1.710  11.673 -0.3103  0.1538  0.1856
 3042PP      PP13146  14.673   6.029   3.095 -0.3207  0.4092 -0.0422
 3043PP      PP13147   3.285  15.850   9.266  0.2467  0.2361  0.2312
 3044PP      PP13148   5.056   8.663   1.796  0.0361  0.0409  0.1314
 3045PP      PP13149  12.739  12.022   0.675 -0.1304  0.0250 -0.0094
 3046PP      PP13150   0.020   8.156   1.963 -0.0529 -0.4004  0.0763
 3047PP      PP13151   5.146   4.639   0.460 -0.0274  0.0462 -0.3445
 3048PP      PP13152   7.612   6.913   2.719 -0.0196  0.1463  0.0541
 3049PP      PP13153   6.407  15.702  13.319 -0.0158  0.0297 -0.1176
 3050PP      PP13154  13.063   5.375   1.018  0.1594 -0.3477  0.0407
 3051PP      PP13155  10.841   6.911   0.765 -0.1774  0.1648 -0.0442
 3052PP      PP13156  11.371   7.610   1.646  0.1878 -0.0221  0.5728
 3053PP      PP13157   3.930  10.259  11.907  0.1455  0.1209  0.1890
 3054PP      PP13158  15.186   6.467   4.145 -0.0002 -0.2068  0.1062
 3055PP      PP13159  15.687  10.349   4.218 -0.2826 -0.1233  0.0237
 3056PP      PP13160   7.667  11.351   2.534  0.2226  0.0571  0.1155
 3057PP      PP13161  11.481   1.444   8.803  0.1351 -0.0649 -0.2567
 3058PP      PP13162  15.477  14.189  13.122 -0.0051  0.1225  0.0611
 3059PP      PP13163   2.444   9.652   1.771  0.3120 -0.2711  0.1357
 3060PP      PP13164   8.692   9.012  11.660  0.1403 -0.0819 -0.4667
 3061PP      PP13165   6.820   0.344   9.698 -0.1966  0.0403  0.1960
 3062PP      PP13166   7.058   5.263   1.041 -0.1529  0.0379 -0.2823
 3063PP      PP13167   4.264   7.859  12.842 -0.1576  0.2844  0.0588
 3064PP      PP13168  14.547   5.023  11.329  0.3169 -0.1612 -0.0937
 3065PP      PP13169   6.708   0.865   9.950 -0.3880  0.1001  0.0345
 3066PP      PP13170   5.336  11.789  13.452  0.0241  0.1538  0.1665
 3067PP      PP13171   0.268   4.874   4.218 -0.2051 -0.1993 -0.0651
 3068PP      PP13172  14.730  12.130  11.749  0.0605 -0.0794  0.2376
 3069PP      PP13173   1.416   3.396   9.388 -0.1141 -0.1161  0.2475
 3070PP      PP13174   6.592  12.444  12.206 -0.1762 -0.0817 -0.1526
 3071PP      PP13175  13.514  14.571   0.742  0.2602 -0.1073  0.1603
 3072PP      PP13176  15.640   1.270   3.942  0.0116  0.0804  0.0696
 3073PP      PP13177   5.914   6.839  10.848  0.0620  0.2498 -0.0649
 3074PP      PP13178  14.596   1.812   4.490 -0.0500  0.0178 -0.0279
 3075PP      PP13179   6.982   1.578   2.237  0.0610  0.1067  0.0828
 3076PP      PP13180   4.651   9.612  11.394  0.0967  0.0363 -0.0119
 3077PP      PP13181  10.812   5.665   9.638  0.2153 -0.0349  0.2638
 3078PP      PP13182   2.115  10.709   2.147  0.3267  0.1089 -0.0431
 3079PP      PP13183   3.108  13.198   1.107  0.0424 -0.0078 -0.0999
 3080PP      PP13184   5.235  15.424   9.518  0.1417  0.2089 -0.0894
 3081PP      PP13185   7.413  14.073   0.058  0.0012  0.4464 -0.2065
 3082PP      PP13186  10.538   8.662   2.926 -0.0694  0.0427  0.1917
 3083PP      PP13187   2.455  15.399  11.196  0.0154 -0.0626  0.2421
 3084PP      PP13188   8.534  11.484  11.431  0.0753  0.0081  0.1506
 3085PP      PP13189  13.459  15.201   8.978 -0.1380  0.2025 -0.1501
 3086PP      PP13190   4.226   5.087  11.576  0.1253  0.2997 -0.3448
 3087PP      PP13191   7.283   0.395   9.055 -0.1973  0.1940 -0.2610
 3088PP      PP13192   1.435  11.441   2.119 -0.0853  0.1052 -0.2444
 3089PP      PP13193   2.844   8.867   2.400 -0.0655  0.2149 -0.1132
 3090PP      PP13194   0.190  11.948  11.381 -0.0409  0.0260  0.5023
 3091PP      PP13195   6.376   8.268   1.716  0.2870  0.2191  0.1677
 3092PP      PP13196   6.629   9.114  11.198  0.0534  0.0299  0.2262
 3093PP      PP13197  11.938   9.817  11.911  0.4281 -0.0344 -0.2688
 3094PP      PP13198   6.386  12.880   2.822  0.0593  0.2572  0.1019
 3095PP      PP13199   0.472   0.390  10.273 -0.2222  0.0408 -0.0792
 3096PP      PP13200  12.858   7.329   1.339 -0.5949  0.0642 -0.1925
 3097PP      PP13201   9.158   5.970   4.069  0.4242 -0.1862  0.1605
 3098PP      PP13202   5.749   1.100  11.614  0.0271 -0.2368 -0.2624
 3099PP      PP13203  13.310  13.501   9.293  0.0916  0.1473 -0.1194
 3100PP      PP13204   8.102  13.484   3.694 -0.3102  0.2674  0.0807
 3101PP      PP13205   6.471   7.222  10.910  0.1234  0.1145 -0.0390
 3102PP      PP13206  12.112   6.423   2.748  0.0557  0.0549 -0.0944
 3103PP      PP13207   6.128  11.627   3.028 -0.3719  0.1755 -0.1689
 3104PP      PP13208   4.126  11.802  12.682  0.1799 -0.0427 -0.3730
 3105PP      PP13209   5.842   1.818   0.230 -0.2764 -0.1205  0.0846
 3106PP      PP13210  15.540   0.571   1.082 -0.2427 -0.1979  0.1175
 3107PP      PP13211   0.014   8.476  10.693  0.1477 -0.3610  0.1679
 3108PP      PP13212  11.786   2.865  12.022 -0.0219  0.0803  0.3234
 3109PP      PP13213   1.359   9.461  12.394  0.1990  0.0378  0.1017
 3110PP      PP13214   6.726   1.063   2.983  0.1813  0.0289  0.0399
 3111PP      PP13215   7.255  13.886   0.703 -0.0680 -0.1318  0.0835
 3112PP      PP13216   5.857   9.046  12.245  0.1861 -0.5493  0.0746
 3113PP      PP13217  10.896  13.594   2.353  0.1778 -0.5355  0.0487
 3114PP      PP13218   2.391  13.825   4.490  0.1168  0.1491 -0.1709
 3115PP      PP13219   6.582   8.060   4.674 -0.2922 -0.4211  0.3687
 3116PP      PP13220   2.490   1.594   9.417 -0.1203 -0.0080 -0.1223
 3117PP      PP13221   9.924   4.613  12.285 -0.1204  0.1047  0.3684
 3118PP      PP13222   5.704  14.731  12.396  0.0965 -0.1243 -0.0093
 3119PP      PP13223   2.669   4.769   3.015  0.1718 -0.1639 -0.0192
 3120PP      PP13224  11.128  12.864   7.740 -0.2028 -0.0604 -0.3665
 3121PP      PP13225  15.530  12.369   0.148  0.3545  0.2630  0.0469
 3122PP      PP13226   6.190  12.835  11.477  0.0787 -0.2291  0.0714
 3123PP      PP13227   9.021  11.145  11.009 -0.0921  0.0197 -0.1752
 3124PP      PP13228   1.692   1.737   0.884 -0.1010 -0.1991 -0.3306
 3125PP      PP13229   3.873  10.478  13.027 -0.1256  0.1624  0.1949
 3126PP      PP13230   4.992  10.102  12.088  0.3061 -0.0575  0.2296
 3127PP      PP13231  13.999  14.506   9.679 -0.1671 -0.0514 -0.0462
 3128PP      PP13232   6.845   0.150  10.139  0.0928 -0.0832  0.0610
 3129PP      PP13233   5.441   9.416   4.663  0.0234 -0.0112  0.2440
 3130PP      PP13234   4.690   8.254  11.843  0.0812 -0.0055 -0.0069
 3131PP      PP13235  14.927  13.751  10.600  0.4045 -0.1403 -0.1946
 3132PP      PP13236   8.276   5.848   3.113  0.1411  0.0362  0.1396
 3133PP      PP13237  10.296   2.892   3.618  0.0653  0.0306  0.3575
 3134PP      PP13238   2.171  13.709   8.961  0.2217 -0.1063  0.0100
 3135PP      PP13239   0.147   4.397   5.005  0.2975  0.0347  0.2556
 3136PP      PP13240   9.764  13.317   0.396  0.0347  0.0733 -0.1302
 3137PP      PP13241  13.231  14.668   3.185 -0.1190  0.0400  0.1827
 3138PP      PP13242  12.237   9.063   1.170 -0.0144  0.4938  0.1270
 3139PP      PP13243   2.361   0.993   9.593  0.2314 -0.2553 -0.0981
 3140PP      PP13244   4.721  14.517  10.291 -0.0834  0.0254 -0.0250
 3141PP      PP13245   2.722  13.527  11.434  0.1307  0.3452  0.0193
 3142PP      PP13246   3.773   4.422   9.250  0.1694 -0.1329  0.1383
 3143PP      PP13247   1.563  11.999  11.752 -0.1517 -0.1868 -0.0253
 3144PP      PP13248   9.830   7.792   0.432  0.1702  0.2997 -0.3693
 3145PP      PP13249  13.303   9.699   2.987 -0.3139 -0.2065  0.0393
 3146PP      PP13250   0.841  11.072  11.002 -0.3216  0.2493  0.0036
 3147PP      PP13251  11.881   8.308   9.209 -0.2183  0.1122 -0.1996
 3148PP      PP13252   4.149  13.183   0.017  0.0790 -0.0780  0.0564
 3149PP      PP13253   0.641  11.539   1.390  0.0192  0.0897  0.0507
 3150PP      PP13254   0.182  13.117   0.199  0.1024 -0.0854  0.0442
 3151PP      PP13255  13.590   3.448  12.343  0.1348 -0.1041  0.2430
 3152PP      PP13256   7.934   7.059  11.976  0.0380  0.2287  0.1899
 3153PP      PP13257  12.688  12.434   2.695  0.3407 -0.1758  0.1668
 3154PP      PP13258   6.547  13.581  11.222  0.0914  0.0316  0.0783
 3155PP      PP13259   1.922  12.390  10.920 -0.1328 -0.0524 -0.0258
 3156PP      PP13260   7.793   7.095  11.401  0.5018  0.0191  0.0727
 3157PP      PP13261   1.833   6.319   4.205  0.2704 -0.1050 -0.1244
 3158PP      PP13262   9.090   2.774   4.069 -0.0199  0.0105 -0.0086
 3159PP      PP13263   1.184   0.899   2.227  0.1966 -0.0395 -0.0849
 3160PP      PP13264  11.195   4.968   4.904  0.0108 -0.2300 -0.0214
 3161PP      PP13265  14.215   4.463   9.878  0.0385  0.0281  0.0447
 3162PP      PP13266   8.725   0.034   0.115  0.0936  0.2527 -0.1298
 3163PP      PP13267  13.285   9.442  11.143  0.0604 -0.0292  0.2124
 3164PP      PP13268   0.736  11.229   2.288 -0.1000  0.1173  0.0185
 3165PP      PP13269   2.752   2.897   3.471  0.0021  0.0970 -0.0453
 3166PP      PP13270   9.953   6.705   9.803  0.1662  0.0124 -0.4007
 3167PP      PP13271   1.372   6.978  12.747  0.0470 -0.2716 -0.2621
 3168PP      PP13272   1.753   9.173  12.172 -0.2484 -0.0070 -0.2302
 3169PP      PP13273  12.663  11.676  11.579  0.2695 -0.3352  0.0407
 3170PP      PP13274   3.428   5.813  10.447 -0.0534 -0.1336  0.1243
 3171PP      PP13275   1.565  10.636  10.760 -0.0750  0.1737  0.5423
 3172PP      PP13276  13.804   6.553   4.857 -0.2215  0.2835  0.2029
 3173PP      PP13277   9.470  12.927   3.870  0.0188 -0.3828  0.1011
 3174PP      PP13278  12.254   6.102  10.005  0.2700  0.2712  0.0722
 3175PP      PP13279   7.692   4.109  11.574  0.0160 -0.0463 -0.2410
 3176PP      PP13280  13.404   9.568  13.266 -0.2037 -0.0696 -0.0551
 3177PP      PP13281  12.876   5.059   4.455  0.2608  0.2397  0.1904
 3178PP      PP13282   6.072  11.822   9.779  0.2601 -0.2433  0.0901
 3179PP      PP13283   9.716   9.891  11.383 -0.0509 -0.0476 -0.0940
 3180PP      PP13284  13.652  14.804  10.807  0.1785  0.0359  0.5522
 3181PP      PP13285   1.769  14.355   2.514  0.0018  0.3222 -0.1914
 3182PP      PP13286   1.384   5.476   3.617  0.0684  0.1257  0.0175
 3183PP      PP13287  10.973   5.635   1.297  0.0722  0.1307 -0.2568
 3184PP      PP13288   7.695  14.037   1.470  0.0038 -0.1050 -0.3914
 3185PP      PP13289   3.367   4.142   2.112 -0.3112  0.1055  0.1098
 3186PP      PP13290   8.898   8.584   2.089 -0.0161 -0.0923 -0.3894
 3187PP      PP13291  14.791   0.099  10.668  0.1291  0.3648  0.1036
 3188PP      PP13292   5.711   6.913  11.726 -0.1093 -0.0399 -0.3369
 3189PP      PP13293  15.190  15.696   2.428  0.0433 -0.3606 -0.0644
 3190PP      PP13294   2.980   0.579  12.787 -0.0499 -0.2869 -0.0248
 3191PP      PP13295  10.977  11.074  13.413 -0.3226 -0.0775  0.0779
 3192PP      PP13296  13.943   7.369  12.895 -0.0694 -0.1118  0.0055
 3193PP      PP13297  10.029   5.641  12.691 -0.1887  0.1873  0.1010
 3194PP      PP13298   7.808  10.828  13.020  0.1303 -0.2747  0.0671
 3195PP      PP13299   4.670   2.161  12.720  0.0285 -0.1574 -0.4099
 3196PP      PP13300  13.197  12.778   8.673  0.1360  0.4342 -0.4451
 3197PP      PP13301   7.340  10.804  12.738  0.2093 -0.0808 -0.0867
 3198PP      PP13302   1.683   0.483   0.411  0.0346  0.0298  0.0271
 3199PP      PP13303   7.685   7.189  12.407  0.0905  0.0530  0.0051
 3200PP      PP13304  15.796  15.059   9.794 -0.1864  0.2065 -0.2787
 3201PP      PP13305   0.959   3.894  12.417  0.2438  0.0192 -0.1534
 3202PP      PP13306   2.171   7.531  11.090 -0.1605  0.0408  0.0393
 3203PP      PP13307   3.259   6.299   4.532  0.1488 -0.1525  0.0465
 3204PP      PP13308   2.002   9.188  10.926  0.0150 -0.2746  0.0529
 3205PP      PP13309  10.635   4.209   0.407 -0.0035 -0.0635 -0.3151
 3206PP      PP13310   1.246   7.821  10.385  0.0633 -0.4052 -0.0669
 3207PP      PP13311   6.079   7.150   0.302  0.0227  0.0087  0.2690
 3208PP      PP13312  10.351   7.484   2.023  0.0103  0.0914 -0.0332
 3209PP      PP13313   8.730  15.531  12.627  0.2135  0.0516  0.0316
 3210PP      PP13314   4.603  14.847  13.343  0.0501 -0.0766 -0.0575
 3211PP      PP13315   1.407  15.298   2.642 -0.2245  0.2156 -0.2191
 3212PP      PP13316   1.827   8.871   0.003 -0.0397  0.0891 -0.0338
 3213PP      PP13317  15.054   5.090   1.563 -0.0977  0.0825  0.0664
 3214PP      PP13318   2.668   4.370   0.876  0.3713  0.0313  0.1122
 3215PP      PP13319   4.648   8.769   1.467  0.1863 -0.1800  0.1769
 3216PP      PP13320  15.722   7.005  10.132  0.0426 -0.1732  0.0541
 3217PP      PP13321   5.278  13.590   9.780  0.5668 -0.3311 -0.1787
 3218PP      PP13322   3.083   0.298   3.719  0.1327 -0.0258 -0.1928
 3219PP      PP13323  11.924   7.985  13.195 -0.0742  0.2241  0.3116
 3220PP      PP13324   5.002   5.965   2.613 -0.0123  0.1550 -0.2351
 3221PP      PP13325   0.864  12.993  10.984  0.2798 -0.1971  0.0889
 3222PP      PP13326   0.399   9.969   2.621  0.1984  0.0008 -0.0545
 3223PP      PP13327   0.523   2.728  12.356  0.2831  0.0485  0.0359
 3224PP      PP13328  10.935   6.150   1.340 -0.0636 -0.3053 -0.0082
 3225PP      PP13329   5.881   8.473  10.070 -0.2674 -0.1996 -0.1075
 3226PP      PP13330  13.537  13.765  12.936 -0.0061 -0.2038 -0.0852
 3227PP      PP13331  14.334   4.206  12.465 -0.2490  0.0185  0.0727
 3228PP      PP13332   9.050  15.148  10.210  0.1752  0.0614 -0.1638
 3229PP      PP13333  14.049  15.531   2.501 -0.1042 -0.0244 -0.0419
 3230PP      PP13334   1.825   1.988   3.004  0.0317 -0.2528 -0.2060
 3231PP      PP13335  14.084  12.048   3.425  0.0015  0.1017 -0.4127
 3232PP      PP13336   5.539  10.295  11.458 -0.1086  0.4081 -0.1519
 3233PP      PP13337   6.012   2.117   8.861  0.0314  0.1566  0.0419
 3234PP      PP13338   5.612   4.450  12.069 -0.2616 -0.2381 -0.1824
 3235PP      PP13339  14.902   8.739   9.849 -0.2371 -0.2804 -0.2406
 3236PP      PP13340   3.171  13.879   1.108  0.2791 -0.0881  0.0112
 3237PP      PP13341   7.808  15.422  12.167 -0.0811  0.1230  0.0103
 3238PP      PP13342   5.362  14.982  12.690 -0.0791  0.1089 -0.1972
 3239PP      PP13343   0.873   6.017   4.085  0.1437  0.4250 -0.1528
 3240PP      PP13344   5.196   2.952  13.400 -0.1217 -0.1280 -0.1369
 3241PP      PP13345   5.561   5.773   4.261 -0.0283  0.2164 -0.1933
 3242PP      PP13346   0.353  11.288   1.031 -0.4482 -0.2053  0.0950
 3243PP      PP13347  10.122   6.940   3.245  0.0254  0.2684  0.1194
 3244PP      PP13348  11.471  15.290  10.927  0.2398 -0.2110  0.2901
 3245PP      PP13349   5.849  13.939   1.401 -0.1328  0.1114  0.1767
 3246PP      PP13350   3.531   8.928   1.305 -0.0886  0.0277  0.0826
 3247PP      PP13351  12.333  14.675   2.535 -0.0848  0.0174 -0.1566
 3248PP      PP13352  13.881  12.914  10.882 -0.0045  0.0310 -0.0764
 3249PP      PP13353   9.587  15.788   0.546 -0.0442 -0.0635 -0.0141
 3250PP      PP13354   5.542   5.344  12.641  0.0953  0.0291  0.0090
 3251PP      PP13355   8.333   2.952  13.215 -0.1571 -0.0012  0.1644
 3252PP      PP13356  12.259  14.103   9.316 -0.1363  0.0216 -0.1036
 3253PP      PP13357   3.766   9.015   2.276 -0.1400  0.1310  0.2596
 3254PP      PP13358   4.190  11.600  12.124  0.0943 -0.1026  0.0844
 3255PP      PP13359   3.605  14.654  12.454  0.2626 -0.0718  0.0901
 3256PP      PP13360   5.542   1.001   2.170  0.0134 -0.3348  0.2347
 3257PP      PP13361  11.189   0.540  11.160 -0.1231 -0.2155 -0.0537
 3258PP      PP13362   4.596  12.627  12.553  0.0227  0.2274  0.0435
 3259PP      PP13363  15.210  11.247   2.000 -0.1188 -0.2209  0.1173
 3260PP      PP13364   5.640  13.450   0.189 -0.3481  0.1973 -0.2198
 3261PP      PP13365  11.732  15.747  10.447 -0.2534  0.2270 -0.0513
 3262PP      PP13366  10.076   6.171  10.170 -0.1476 -0.0301  0.2278
 3263PP      PP13367  15.450  14.049  10.420 -0.1599 -0.0862 -0.3298
 3264PP      PP13368  14.974  11.022   2.759 -0.1581 -0.4069  0.0975
 3265PP      PP13369   6.122   4.105  10.929 -0.1319 -0.0474 -0.2057
 3266PP      PP13370   4.518   4.291   9.961 -0.0417  0.0617 -0.1779
 3267PP      PP13371  13.978   6.368   1.790 -0.2337  0.4235 -0.1026
 3268PP      PP13372  10.352   5.959  10.589  0.0375  0.0180 -0.0720
 3269PP      PP13373   4.251  15.733  10.988  0.0800  0.0386  0.0908
 3270PP      PP13374  14.519   8.502   3.587  0.0948  0.3348  0.2007
 3271PP      PP13375   1.006  15.287   0.724 -0.3702  0.0401 -0.0795
 3272PP      PP13376  15.287   6.111  10.049 -0.3729  0.0184 -0.0699
 3273PP      PP13377  10.493  13.824   3.255 -0.0594  0.1902 -0.2691
 3274PP      PP13378   2.513  15.170  10.084 -0.1588  0.1261 -0.0370
 3275PP      PP13379   0.107  14.674   9.396  0.0588  0.0629  0.0140
 3276PP      PP13380   1.521   3.391   4.455  0.3190  0.1082 -0.1413
 3277PP      PP13381  12.968  11.820  12.531 -0.0811  0.2849 -0.3526
 3278PP      PP13382  13.161   5.790  13.261 -0.0575 -0.1199  0.1924
 3279PP      PP13383   3.748   0.305   2.023 -0.3898  0.3620 -0.1138
 3280PP      PP13384   1.825  12.041  11.301 -0.1389 -0.0747 -0.0337
 3281PP      PP13385   1.415   8.032   1.255 -0.1679 -0.2221  0.0366
 3282PP      PP13386   7.140   6.518  10.374  0.0570 -0.3553  0.2291
 3283PP      PP13387   2.329  12.717  11.019  0.1613  0.0734  0.0721
 3284PP      PP13388   7.548   4.310  12.750  0.1642 -0.0347  0.1412
 3285PP      PP13389   4.002   5.474  11.758 -0.2927 -0.3121 -0.0678
 3286PP      PP13390   7.846  14.549   0.252 -0.0565  0.1761 -0.1084
 3287PP      PP13391   2.264  13.507   2.256  0.1126  0.0802  0.1802
 3288PP      PP13392   6.468   4.380  11.821  0.0824  0.0497  0.1140
 3289PP      PP13393   7.530  13.125   3.774 -0.0236 -0.2949 -0.1523
 3290PP      PP13394   5.666   4.019  12.323 -0.0518  0.0140 -0.1079
 3291PP      PP13395  14.656  15.700   3.461 -0.1199  0.2287 -0.1139
 3292PP      PP13396   8.885   0.483  10.843 -0.2146 -0.2598  0.1350
 3293PP      PP13397   5.965  13.716   4.423  0.3078 -0.1848  0.1721
 3294PP      PP13398   7.436   9.950   4.230  0.1079  0.0528  0.1010
 3295PP      PP13399  14.237  11.184   9.672  0.0627  0.0260 -0.0085
 3296PP      PP13400   6.570   8.559   2.062 -0.0068  0.1443 -0.0723
 3297PP      PP13401  14.627   9.325   0.576 -0.1297 -0.0190  0.0252
 3298PP      PP13402  12.605   7.309   2.414  0.0372  0.0618  0.0846
 3299PP      PP13403  10.688   3.353  12.201  0.3887  0.1283 -0.0401
 3300PP      PP13404  12.219   3.127  12.166  0.1835  0.0081 -0.2918
 3301PP      PP13405   5.469   5.709  12.900  0.1343 -0.0308 -0.1052
 3302PP      PP13406   0.855   4.401  12.269 -0.0723  0.1492  0.3455
 3303PP      PP13407   3.187  11.261  10.233 -0.0259  0.0948 -0.1125
 3304PP      PP13408   1.511   6.063   2.485 -0.1039 -0.0224 -0.0643
 3305PP      PP13409   8.178   1.672   8.328  0.0295 -0.2161 -0.1089
 3306PP      PP13410   2.608   9.864   5.018  0.0171 -0.4901  0.2461
 3307PP      PP13411  15.382  15.190  10.477  0.0661  0.0091 -0.1496
 3308PP      PP13412   7.715   7.522  12.011  0.2892  0.2367 -0.2453
 3309PP      PP13413   8.391   4.310  10.651 -0.0569  0.1492 -0.0593
 3310PP      PP13414  10.060  15.098   3.225  0.0696  0.1120 -0.1973
 3311PP      PP13415   9.508   4.293   1.870  0.1279  0.5843  0.0714
 3312PP      PP13416  12.008   1.788   3.038  0.2538  0.0398 -0.0703
 3313PP      PP13417   5.780   7.792   0.994 -0.1203 -0.0083 -0.0406
 3314PP      PP13418  12.325   4.001  13.286 -0.1029 -0.2271 -0.4702
 3315PP      PP13419   5.830  14.469   9.452  0.0154 -0.2858 -0.0191
 3316PP      PP13420  10.042   1.134  10.543  0.0384 -0.0909  0.2743
 3317PP      PP13421   7.241   6.572  12.810  0.1109  0.0806  0.2363
 3318PP      PP13422   4.292   1.422   0.725  0.3594  0.1362 -0.2301
 3319PP      PP13423   5.469   8.834  11.851 -0.1421 -0.0518 -0.1106
 3320PP      PP13424  15.786   1.101   9.290 -0.0478 -0.0578  0.2182
 3321PP      PP13425  12.153   0.344   3.008  0.1039 -0.0295  0.0292
 3322PP      PP13426   5.280   1.560  10.972 -0.4518 -0.0862 -0.1130
 3323PP      PP13427   2.150   3.559   8.922 -0.1007  0.2435 -0.0681
 3324PP      PP13428   5.685   8.662  11.445  0.0070 -0.2822  0.0476
 3325PP      PP13429   9.195   5.059   4.236  0.1133 -0.0695 -0.1451
 3326PP      PP13430   2.581   3.935   9.682 -0.3249  0.0035 -0.0372
 3327PP      PP13431   8.699   9.469  13.437  0.1663  0.0305  0.1347
 3328PP      PP13432   6.405   4.472   9.109 -0.1918 -0.0525  0.1067
 3329PP      PP13433  14.582  11.698  12.501  0.1836 -0.1041  0.2270
 3330PP      PP13434   2.702   4.255   2.252 -0.0766  0.3117 -0.0274
 3331PP      PP13435   7.295  11.666   2.736  0.2060 -0.2116  0.0925
 3332PP      PP13436   3.951   0.163   3.294 -0.0593 -0.0225 -0.2131
 3333PP      PP13437  13.953  14.223   2.409  0.0971  0.2025 -0.0412
 3334PP      PP13438   2.067  12.117   0.960  0.2338 -0.1393  0.2181
 3335PP      PP13439   9.326  13.451   9.566  0.0639  0.2503 -0.4028
 3336PP      PP13440   1.871   8.342  11.038 -0.3080  0.0278  0.0359
 3337PP      PP13441  12.466   4.215   4.538 -0.1144 -0.2580 -0.3268
 3338PP      PP13442   3.252   0.766   3.840 -0.1610 -0.0460  0.1984
 3339PP      PP13443   3.381  15.003  11.207 -0.0063  0.2392  0.2935
 3340PP      PP13444   3.820   9.658   0.413  0.3984 -0.0430 -0.5126
 3341PP      PP13445   0.249   1.373   1.895  0.4443  0.4509 -0.0754
 3342PP      PP13446   1.248   3.002  12.339 -0.0066 -0.0502 -0.0509
 3343PP      PP13447  13.780   3.023   9.129 -0.0863  0.1304  0.0514
 3344PP      PP13448  11.240  12.206   1.100  0.0037 -0.0287 -0.1167
 3345PP      PP13449  13.232   4.081   3.952 -0.0360 -0.1420 -0.3075
 3346PP      PP13450  12.453   8.456   4.012  0.5949  0.0406  0.1115
 3347PP      PP13451  14.475   2.925   9.603 -0.0987 -0.2399 -0.2837
 3348PP      PP13452   2.910   8.511   5.000  0.1467  0.0020 -0.4072
 3349PP      PP13453  12.578  14.451   9.733 -0.1675  0.0582 -0.0271
 3350PP      PP13454   5.211   8.160  12.553  0.3187 -0.1322 -0.1527
 3351PP      PP13455   2.315   7.060   3.945  0.2912 -0.2212  0.1793
 3352PP      PP13456   3.128   7.050   0.241 -0.0290  0.2844  0.3247
 3353PP      PP13457   3.132   5.350   0.994  0.0478  0.0108 -0.0896
 3354PP      PP13458   7.147   7.418  10.564 -0.1937  0.1579 -0.0857
 3355PP      PP13459   9.980  15.350  11.944 -0.1094  0.0986 -0.3692
 3356PP      PP13460   1.064  12.943  13.311 -0.1347 -0.3226 -0.2164
 3357PP      PP13461  15.203   7.694   5.173 -0.0701  0.0806 -0.1187
 3358PP      PP13462  12.091  15.215   1.556 -0.1980  0.0287 -0.0909
 3359PP      PP13463   0.561  15.494   2.506  0.0024  0.3079 -0.2313
 3360PP      PP13464   6.831  11.471   0.652  0.2823  0.0806 -0.0707
 3361PP      PP13465  13.900  12.877  11.784 -0.2218 -0.0134  0.2891
 3362PP      PP13466  14.300   2.084  11.082 -0.0637  0.0817  0.1715
 3363PP      PP13467  11.209   5.295   3.618 -0.2665  0.4036  0.0034
 3364PP      PP13468  11.303   2.067  11.310  0.0746 -0.3124 -0.0503
 3365PP      PP13469  15.440   3.755   3.018  0.1660  0.0874 -0.1228
 3366PP      PP13470   4.309  12.919   2.584 -0.0049 -0.0673 -0.1065
 3367PP      PP13471   8.027   4.493  12.965  0.0758  0.1537  0.0083
 3368PP      PP13472   0.233   6.764   0.214  0.3591  0.0894 -0.0126
 3369PP      PP13473  12.659  11.130   1.430  0.1218  0.2531  0.1730
 3370PP      PP13474   9.340   1.615  11.470  0.1290  0.2081  0.0611
 3371PP      PP13475  11.645   3.303  12.269  0.0391  0.0286 -0.1785
 3372PP      PP13476   0.908   8.171   2.087  0.2567 -0.0881  0.2933
 3373PP      PP13477   3.658   0.682   2.403  0.2257 -0.1803 -0.1784
 3374PP      PP13478  15.702   4.447  12.674 -0.3752  0.1239  0.1327
 3375PP      PP13479  14.464   3.965   1.945  0.1417 -0.2052  0.0142
 3376PP      PP13480  13.961  14.712  11.749  0.1122 -0.0258  0.2254
 3377PP      PP13481   7.839  10.984   1.080 -0.3297 -0.0467 -0.0370
 3378PP      PP13482   0.827  13.117   3.246  0.2315  0.0304 -0.0307
 3379PP      PP13483  15.656   1.552   2.130 -0.0743  0.0893 -0.0873
 3380PP      PP13484   3.047  11.328   0.144 -0.1263 -0.0276 -0.0788
 3381PP      PP13485   9.295   4.048   0.050 -0.1566 -0.0039  0.1178
 3382PP      PP13486   0.466  12.867   1.681  0.1123  0.1243  0.0258
 3383PP      PP13487   0.315  12.179   2.973 -0.2056 -0.0964 -0.1016
 3384PP      PP13488   1.339  13.451   4.039 -0.1999 -0.0679  0.3069
 3385PP      PP13489   1.100   1.429  12.624 -0.0605 -0.0170 -0.0901
 3386PP      PP13490   0.809   0.480  13.288  0.2187  0.0886  0.1551
 3387PP      PP13491   4.203  13.530   1.756  0.0087  0.3811  0.2356
 3388PP      PP13492   3.925  14.282   3.582 -0.0271 -0.1526 -0.3324
 3389PP      PP13493   3.067   3.564  12.310 -0.0649 -0.2730  0.0383
 3390PP      PP13494   0.540  12.480   2.604 -0.0032 -0.1640  0.0003
 3391PP      PP13495   9.085   1.768   2.980  0.0837 -0.0181  0.2709
 3392PP      PP13496  10.587   9.804   9.914  0.0685 -0.0319  0.1231
 3393PP      PP13497   7.649   2.356   2.100 -0.0327  0.2898 -0.1838
 3394PP      PP13498   2.410  12.223   2.495 -0.0226  0.3821 -0.1030
 3395PP      PP13499  15.119   8.236   0.252  0.0412 -0.2948  0.1238
 3396PP      PP13500   1.896   2.905  11.236 -0.1324  0.2153 -0.3261
 3397PP      PP13501  10.425  15.793   2.192 -0.1267  0.0755 -0.1778
 3398PP      PP13502   1.102   3.821   1.360  0.0882  0.0578  0.3335
 3399PP      PP13503  14.422  14.919   2.714 -0.1400 -0.1389 -0.6741
 3400PP      PP13504  14.360  15.864  10.825 -0.2734  0.0985 -0.1488
 3401PP      PP13505  14.403   8.935  11.625 -0.0738  0.1412 -0.0305
 3402PP      PP13506   2.492   5.761  10.161 -0.0349  0.1527 -0.1571
 3403PP      PP13507   3.567  10.077   5.277 -0.3204 -0.0739 -0.2656
 3404PP      PP13508  10.968  12.377  11.607 -0.0738  0.0016  0.0725
 3405PP      PP13509   3.038   6.516   4.930  0.2980 -0.1516  0.2062
 3406PP      PP13510   6.159   9.058  11.203  0.1089 -0.0391 -0.0462
 3407PP      PP13511   6.054   5.279   4.692  0.1608  0.1621 -0.0959
 3408PP      PP13512   7.215   3.927  11.826  0.2491 -0.3183  0.0337
 3409PP      PP13513   2.786  12.598  13.434  0.1469  0.3500  0.0135
 3410PP      PP13514   0.357  13.175  11.074 -0.1371 -0.1170  0.0072
 3411PP      PP13515   1.682   1.033  11.993 -0.1547 -0.1276  0.0288
 3412PP      PP13516  11.079  15.564  10.596  0.2516  0.2490 -0.1637
 3413PP      PP13517  11.667   3.849   3.902 -0.1838 -0.0336  0.1612
 3414PP      PP13518  13.385   7.272   1.875  0.1679 -0.1989 -0.1840
 3415PP      PP13519  14.684   2.139   3.162 -0.3481 -0.0661  0.0453
 3416PP      PP13520  12.554   4.551  10.164 -0.0271 -0.2078  0.1804
 3417PP      PP13521   7.665  14.742   1.255 -0.2353 -0.2222 -0.0284
 3418PP      PP13522  10.208   2.131  10.879  0.1517 -0.0218 -0.0559
 3419PP      PP13523   5.435   1.161   1.319  0.1293 -0.2930 -0.1003
 3420PP      PP13524   2.332  11.695   9.343 -0.0133 -0.0747  0.1932
 3421PP      PP13525  10.226   1.268   3.970 -0.2486 -0.0462 -0.2189
 3422PP      PP13526  14.734  11.163   2.286  0.2038  0.0836 -0.0427
 3423PP      PP13527   0.164   7.389   0.670  0.1551  0.0276 -0.0501
 3424PP      PP13528  15.583   3.472   1.507  0.0757  0.0073 -0.1268
 3425PP      PP13529   7.497   5.367  10.099  0.2425  0.3030 -0.1350
 3426PP      PP13530  10.627   2.225   1.839  0.0030  0.3848 -0.2132
 3427PP      PP13531  11.338   9.404  12.616  0.0055 -0.0794  0.0336
 3428PP      PP13532  11.488  10.756  10.404 -0.2639 -0.3619  0.0537
 3429PP      PP13533  13.828   0.623   0.502 -0.1625 -0.1165  0.0921
 3430PP      PP13534   2.358   8.623  12.546 -0.1868 -0.1516  0.1741
 3431PP      PP13535  11.229   4.568  12.508 -0.1058  0.2552 -0.1047
 3432PP      PP13536  15.607  11.774  12.449 -0.0491  0.2510  0.0567
 3433PP      PP13537  11.374  10.742   2.429  0.1895 -0.0568  0.3532
 3434PP      PP13538   3.620   5.988   1.457  0.1017  0.1158  0.2495
 3435PP      PP13539   1.862   3.995  12.872  0.1403  0.2160 -0.0334
 3436PP      PP13540   1.996   1.571  13.408 -0.1333  0.2605  0.1905
 3437PP      PP13541   8.334   1.885   1.547 -0.2192  0.1870 -0.0538
 3438PP      PP13542  12.199  14.950  10.647 -0.3291  0.2904 -0.0200
 3439PP      PP13543  14.447   1.446  11.678  0.2022 -0.1782  0.3500
 3440PP      PP13544  14.883   1.683  11.775  0.1151 -0.1538 -0.1353
 3441PP      PP13545  10.032   8.180  10.402  0.1286  0.0589  0.2800
 3442PP      PP13546   0.321   8.152   0.551  0.2726  0.0788 -0.1640
 3443PP      PP13547  13.731   1.107   2.810 -0.2147 -0.3135 -0.2329
 3444PP      PP13548   7.370  14.955   9.614  0.1544  0.1160  0.0953
 3445PP      PP13549   9.057   5.400   2.857  0.0361 -0.3796 -0.0880
 3446PP      PP13550   6.161  11.183  13.030 -0.1380 -0.2486  0.0927
 3447PP      PP13551  12.498   4.585  11.559  0.0928  0.1153 -0.0317
 3448PP      PP13552   9.191  10.802   2.273  0.0107  0.0167  0.0794
 3449PP      PP13553  14.217  11.522  12.187  0.0999  0.4272 -0.2728
 3450PP      PP13554  13.652   7.699   1.104 -0.0620  0.0129  0.3479
 3451PP      PP13555  15.412  13.202   2.062 -0.1180 -0.1701  0.1611
 3452PP      PP13556   5.818  11.917  10.248  0.2599 -0.1094  0.3800
 3453PP      PP13557   7.672  12.278  10.339 -0.5475 -0.0112  0.1741
 3454PP      PP13558  11.799  12.306  11.943 -0.0894 -0.1869 -0.0054
 3455PP      PP13559   1.439   7.273   0.662  0.1461  0.1688  0.1202
 3456PP      PP13560  15.610   4.571   0.252 -0.0794 -0.1737  0.0502
 3457PP      PP13561  10.061  12.500   9.742 -0.1008 -0.0940  0.1114
 3458PP      PP13562  12.916  13.422  12.291 -0.1314 -0.3565  0.0223
 3459PP      PP13563  13.076   8.803  10.164 -0.1103  0.0004  0.0776
 3460PP      PP13564   1.795   2.136   0.589  0.0882 -0.2088 -0.0651
 3461PP      PP13565   4.865   5.129   2.972  0.0976  0.0736  0.2747
 3462PP      PP13566  15.559  14.185   9.436 -0.4247 -0.1446  0.2078
 3463PP      PP13567   4.469   2.901   4.481  0.2163  0.3086 -0.1241
 3464PP      PP13568  13.437   5.355  12.356 -0.3330 -0.0766 -0.1116
 3465PP      PP13569   3.339   2.027   0.713  0.1584  0.4692  0.0217
 3466PP      PP13570   4.159  11.014   0.709  0.0640 -0.0972 -0.0082
 3467PP      PP13571   5.658  11.326   2.381  0.0234 -0.2002 -0.4067
 3468PP      PP13572  14.325  10.861   1.004 -0.0588 -0.0453  0.2207
 3469PP      PP13573   8.395   2.535   4.452  0.2556  0.0452 -0.0865
 3470PP      PP13574   3.488   3.711   2.452  0.0540  0.0975 -0.1940
 3471PP      PP13575  14.602  11.660  11.556 -0.3371  0.1135  0.0482
 3472PP      PP13576  10.768   4.155  11.728  0.3039 -0.0362 -0.1501
 3473PP      PP13577   9.162   2.746  11.400  0.0984  0.1461 -0.0375
 3474PP      PP13578   8.366  13.426  10.342  0.0494 -0.1015  0.0090
 3475PP      PP13579  12.749  11.623  11.010  0.3693  0.0523 -0.0336
 3476PP      PP13580   2.045   2.575  11.780  0.2027  0.0234 -0.0179
 3477PP      PP13581  12.253   0.446   9.524  0.1263 -0.0641 -0.0915
 3478PP      PP13582   4.641  12.705   3.245 -0.1836  0.1566  0.2920
 3479PP      PP13583  12.370   3.452   3.894  0.1256 -0.2194 -0.0589
 3480PP      PP13584   8.059   5.039   3.457 -0.1068  0.1065 -0.4116
 3481PP      PP13585   4.917  15.736   0.346  0.0177  0.2084  0.2845
 3482PP      PP13586   1.148  13.154   1.352 -0.1144 -0.2614 -0.1780
 3483PP      PP13587   2.262   0.245  11.843  0.0905  0.0331 -0.0826
 3484PP      PP13588  10.100   3.848  10.518  0.0674 -0.0267  0.1072
 3485PP      PP13589   1.647  12.479   0.141  0.4039 -0.1860 -0.3641
 3486PP      PP13590  10.934  15.329   9.130  0.3185 -0.1581 -0.0374
 3487PP      PP13591  15.549   8.155  10.448  0.1627  0.1310  0.0461
 3488PP      PP13592   3.971   1.403  10.110  0.1743 -0.1613 -0.0155
 3489PP      PP13593   3.467   2.260   3.105  0.0635 -0.1433  0.1146
 3490PP      PP13594  12.817   2.717   5.117  0.3403 -0.0518 -0.0605
 3491PP      PP13595   7.704   2.417   9.409  0.3987  0.1620  0.2035
 3492PP      PP13596  13.228   1.397   3.647  0.1161 -0.2598  0.2301
 3493PP      PP13597   6.031  11.240  12.548  0.2636 -0.0741  0.0984
 3494PP      PP13598  13.727   6.046   0.147 -0.0948 -0.1823 -0.1583
 3495PP      PP13599  13.900  14.056   1.343 -0.0418 -0.4551 -0.2446
 3496PP      PP13600  15.709   1.928  10.000  0.3239 -0.3331  0.0956
 3497PP      PP13601   5.682   7.619   4.355 -0.2420 -0.0695 -0.3854
 3498PP      PP13602   5.696  11.524   0.757 -0.0442  0.1798  0.2303
 3499PP      PP13603   1.539  13.256  10.254 -0.0148 -0.3577  0.1082
 3500PP      PP13604   2.329  15.038  12.036  0.1476 -0.0268 -0.2538
 3501PP      PP13605  13.981   7.488   4.107 -0.2860  0.1648  0.1490
 3502PP      PP13606  15.448   0.990  13.415  0.0293 -0.0900 -0.1244
 3503PP      PP13607  10.062   5.194   2.191 -0.0773  0.2144 -0.0072
 3504PP      PP13608  10.993   5.854   2.564 -0.0193  0.0319  0.3154
 3505PP      PP13609   5.620  11.842   2.016 -0.1588 -0.0458 -0.1358
 3506PP      PP13610   6.269  14.197  11.751  0.0595 -0.0079 -0.2588
 3507PP      PP13611   2.902  15.234  11.122 -0.2191 -0.0501 -0.0248
 3508PP      PP13612   5.385   5.303  12.165 -0.3193  0.0767 -0.0348
 3509PP      PP13613  13.130   4.513   0.085 -0.1234 -0.1576 -0.2233
 3510PP      PP13614   9.196   8.091   8.921  0.1336 -0.0882 -0.3060
 3511PP      PP13615   7.897   9.980   0.125  0.0204  0.3527  0.0009
 3512PP      PP13616   4.479  15.842   9.584 -0.1031  0.0429 -0.0831
 3513PP      PP13617   6.308  10.236   8.930  0.3083  0.1081  0.3294
 3514PP      PP13618   8.765   8.195  13.431  0.1658  0.6699  0.4383
 3515PP      PP13619   9.533   4.838   1.130  0.1018 -0.0912 -0.2042
 3516PP      PP13620  15.357   5.898   2.958 -0.2775  0.0938  0.1477
 3517PP      PP13621   7.325   0.462   3.594 -0.1320 -0.1735  0.0553
 3518PP      PP13622   2.570   0.960   3.311  0.1135 -0.0337 -0.4597
 3519PP      PP13623   0.973  11.657  13.422 -0.0268 -0.1635 -0.2027
 3520PP      PP13624  12.510   3.223   3.316  0.0750  0.0897  0.1980
 3521PP      PP13625  14.766   4.028   4.489  0.2081  0.1355  0.0088
 3522PP      PP13626  11.381   7.362  12.758  0.0998 -0.4187  0.1870
 3523PP      PP13627  10.207   7.910   9.654  0.0508  0.3264 -0.2178
 3524PP      PP13628  11.363  11.228  11.286 -0.1317  0.2409 -0.2148
 3525PP      PP13629   9.116   4.746   2.714 -0.0593 -0.1848  0.1212
 3526PP      PP13630  11.508   5.304  12.072 -0.1608 -0.1403  0.2957
 3527PP      PP13631  10.316   3.583  10.016  0.2030 -0.0700  0.1064
 3528PP      PP13632  10.473  15.677   1.021  0.2249 -0.2426 -0.0010
 3529PP      PP13633  10.315  13.558   8.860 -0.1222  0.1977  0.0858
 3530PP      PP13634   3.320   1.475  11.589 -0.1185 -0.1082  0.1362
 3531PP      PP13635   1.174  15.499  10.086 -0.4835  0.5607  0.0126
 3532PP      PP13636   4.463  14.087  10.706 -0.1195  0.1620  0.2986
 3533PP      PP13637  14.740  12.452   1.566 -0.0571  0.0615  0.2100
 3534PP      PP13638   6.615   7.870   2.954  0.0870  0.0889  0.0461
 3535PP      PP13639   4.742  12.541   0.052  0.3764 -0.1601  0.0479
 3536PP      PP13640  13.354   3.922  12.986  0.2220  0.0038  0.1012
 3537PP      PP13641   9.347  14.345  10.613 -0.1695  0.0081  0.0325
 3538PP      PP13642   2.654  13.426  13.376  0.1320 -0.1299  0.1442
 3539PP      PP13643   3.610   9.996  13.069 -0.0730  0.1782  0.0921
 3540PP      PP13644   4.225   9.982  12.232 -0.0941  0.3602  0.0346
 3541PP      PP13645   9.334   3.165   4.228 -0.0949  0.0611  0.1612
 3542PP      PP13646   2.340   6.288   1.407  0.1034 -0.0737 -0.1920
 3543PP      PP13647  14.787   7.782   4.924  0.1530  0.0973  0.2939
 3544PP      PP13648  15.526  12.960   1.127  0.2841  0.1774 -0.2784
 3545PP      PP13649   3.249   1.931  11.367  0.0257  0.1263 -0.1436
 3546PP      PP13650   2.402  10.075  12.855 -0.0209 -0.2067  0.1269
 3547PP      PP13651  13.243   2.594  12.714  0.2493  0.3210 -0.0794
 3548PP      PP13652  12.697  11.107   2.759  0.2251 -0.0449 -0.2225
 3549PP      PP13653   2.497   5.820  10.705  0.0949 -0.0318  0.0604
 3550PP      PP13654   7.697   3.574   0.798  0.0836  0.1212 -0.1966
 3551PP      PP13655   4.986   7.723   3.450  0.1110  0.3034 -0.2131
 3552PP      PP13656  14.816   6.387   0.723  0.2988 -0.0821  0.0366
 3553PP      PP13657   7.901   5.646   1.182  0.1318  0.0026 -0.0611
 3554PP      PP13658  11.156   5.170   9.318 -0.1266  0.0005 -0.0210
 3555PP      PP13659   0.474   6.203   1.321  0.2020 -0.1362 -0.0518
 3556PP      PP13660   5.365  12.537  10.047  0.0565 -0.1906 -0.0849
 3557PP      PP13661  11.373  10.201  10.989 -0.0708  0.0806 -0.1595
 3558PP      PP13662  10.473   5.817  12.542  0.4685  0.1243 -0.1904
 3559PP      PP13663  15.677   5.621   4.764  0.2095 -0.3303  0.0327
 3560PP      PP13664  12.821   3.887  12.621 -0.0437  0.1097 -0.0063
 3561PP      PP13665   8.113   7.644   3.812 -0.0192  0.0349 -0.0986
 3562PP      PP13666   6.349   3.434  10.040  0.2013  0.2132  0.1679
 3563PP      PP13667   1.031  10.740   3.153  0.0489  0.0311 -0.4571
 3564PP      PP13668   1.703  12.353  12.888  0.2379 -0.1203  0.0390
 3565PP      PP13669   2.637   3.620   2.960  0.1810  0.0670  0.0741
 3566PP      PP13670  10.650   1.497   3.100 -0.0080  0.0840  0.2126
 3567PP      PP13671  13.498  12.896  10.494  0.1266  0.0312  0.0453
 3568PP      PP13672  13.938   1.961   3.143  0.3221  0.1005  0.0248
 3569PP      PP13673  13.546   3.970   9.491  0.2668  0.2135  0.0990
 3570PP      PP13674   2.977  14.756  11.299 -0.4399  0.0179  0.2524
 3571PP      PP13675   3.222  14.659  12.930 -0.3479 -0.1218 -0.0969
 3572PP      PP13676   0.903   6.520  10.172 -0.1178  0.1629 -0.0447
 3573PP      PP13677   5.325  15.070  11.431 -0.0440  0.1146  0.0152
 3574PP      PP13678   6.057   6.579   9.479 -0.0664 -0.0081 -0.3150
 3575PP      PP13679  12.779   8.378   2.349 -0.1201  0.0831  0.2745
 3576PP      PP13680   4.863   6.825  10.540  0.1225  0.0792  0.1140
 3577PP      PP13681   3.352  11.037   2.358 -0.0906  0.1376 -0.0071
 3578PP      PP13682   8.295   3.001   2.147 -0.1472  0.0918 -0.0216
 3579PP      PP13683  12.363   4.082  11.622  0.2081 -0.0821 -0.1381
 3580PP      PP13684   0.776  14.139  10.498  0.3161 -0.1174 -0.0441
 3581PP      PP13685   7.377   3.478  10.961  0.2563  0.1101  0.0873
 3582PP      PP13686   6.320   3.291   3.127  0.0611 -0.0432  0.2403
 3583PP      PP13687   8.464   5.888   2.369 -0.0598 -0.3700 -0.1722
 3584PP      PP13688   4.097   8.885   2.994 -0.1901 -0.2460 -0.1281
 3585PP      PP13689  14.336   5.648   0.393  0.1863  0.4627 -0.1219
 3586PP      PP13690  14.865  12.440   3.096 -0.0612 -0.2360 -0.1366
 3587PP      PP13691   1.959  10.633  10.283 -0.1027  0.1873  0.3145
 3588PP      PP13692  13.198   2.459  10.167 -0.3065  0.2720  0.5084
 3589PP      PP13693   5.327  12.590   2.157 -0.0317 -0.2048 -0.2823
 3590PP      PP13694   7.960   7.699   9.235  0.3175  0.3887  0.0052
 3591PP      PP13695   6.536   7.348   0.154 -0.2412  0.1974  0.1466
 3592PP      PP13696   8.793   3.685   3.850  0.0787 -0.0848 -0.0280
 3593PP      PP13697   1.977   1.161  12.689 -0.0950 -0.2128 -0.0038
 3594PP      PP13698   4.640  13.884   9.978 -0.0530  0.2146 -0.2788
 3595PP      PP13699  13.258   4.936   4.133  0.0705  0.0465  0.0237
 3596PP      PP13700   4.476  11.862   3.754 -0.1155 -0.0972  0.0563
 3597PP      PP13701  13.736   2.815  10.702 -0.0174  0.1571 -0.3625
 3598PP      PP13702  10.916   7.821  10.409 -0.4490 -0.0479  0.2642
 3599PP      PP13703  13.896   5.199  12.519  0.0512  0.1259 -0.2499
 3600PP      PP13704  15.409   3.561   0.516  0.0181 -0.1484  0.0177
 3601PP      PP13705  10.755   3.091   2.404 -0.0465  0.1444  0.0781
 3602PP      PP13706   0.273  12.084  10.346  0.2373  0.1459 -0.0919
 3603PP      PP13707  10.441  13.531   2.206  0.0246 -0.0126 -0.0284
 3604PP      PP13708  10.955   5.359  11.181 -0.1848  0.0736 -0.2209
 3605PP      PP13709   5.671   7.121  12.871 -0.0737  0.1295  0.0242
 3606PP      PP13710  12.835  12.460   1.458  0.0764 -0.0893 -0.1967
 3607PP      PP13711   4.993   8.666  11.989 -0.2776 -0.0990 -0.1193
 3608PP      PP13712   8.877  14.304  11.941 -0.1096 -0.1082 -0.0727
 3609PP      PP13713   7.583   7.164   1.162  0.0348 -0.0552 -0.0442
 3610PP      PP13714   5.557   3.040   1.331 -0.2301 -0.0133  0.0226
 3611PP      PP13715   1.855  10.329  11.076 -0.1369 -0.0511  0.1001
 3612PP      PP13716   6.664   5.421   3.443  0.0236 -0.0182  0.1615
 3613PP      PP13717   7.747   7.830   2.244 -0.3520  0.0734 -0.1960
 3614PP      PP13718  14.851   8.131   1.892  0.0433 -0.1127  0.1892
 3615PP      PP13719   5.883   4.719   2.142  0.1192 -0.3801  0.1612
 3616PP      PP13720  12.637   8.018   9.789 -0.1620  0.1380  0.3727
 3617PP      PP13721  14.353   3.492  11.289  0.1505 -0.0671  0.0960
 3618PP      PP13722   1.318   0.302   3.342 -0.0960 -0.2788 -0.1259
 3619PP      PP13723   8.835   3.888   3.160  0.0766 -0.2017  0.3283
 3620PP      PP13724  10.488   4.471   1.887  0.0788  0.4133 -0.2594
 3621PP      PP13725   7.673  14.071  11.033  0.0230 -0.2178 -0.2926
 3622PP      PP13726  11.494   1.852  10.866 -0.2345  0.0579  0.0320
 3623PP      PP13727  13.396  11.276  12.691 -0.0721  0.1946  0.1067
 3624PP      PP13728   2.080   0.469   9.435  0.2070 -0.1696 -0.0205
 3625PP      PP13729   4.168   4.551  10.410 -0.1857  0.0422 -0.0176
 3626PP      PP13730   0.265   9.206   1.292  0.4066 -0.6076  0.0304
 3627PP      PP13731   0.492  11.773  13.153 -0.2133 -0.1077  0.1162
 3628PP      PP13732   0.787  14.610   2.455 -0.2057  0.1992  0.0256
 3629PP      PP13733   8.771   5.650  11.633 -0.1016 -0.1204 -0.1366
 3630PP      PP13734  10.421   0.011  11.458 -0.2834  0.3300 -0.2794
 3631PP      PP13735   2.994  10.552  13.198  0.1184 -0.0054 -0.1330
 3632PP      PP13736   4.199   3.708  11.808 -0.1003 -0.0276  0.0023
 3633PP      PP13737   3.803   5.077  12.945 -0.0059  0.0450  0.0809
 3634PP      PP13738  15.484   9.187   2.325  0.2551  0.0805  0.4584
 3635PP      PP13739  14.591   4.782   0.580 -0.1566 -0.0242 -0.1295
 3636PP      PP13740   5.581   0.684   0.951 -0.2387 -0.0489 -0.3693
 3637PP      PP13741   7.748   2.602  12.866 -0.1112  0.0347 -0.0914
 3638PP      PP13742   8.832   5.711   3.726  0.1992 -0.0534 -0.0967
 3639PP      PP13743   1.797   4.919   9.167  0.0508  0.1556  0.0466
 3640PP      PP13744   9.419  10.239   2.918 -0.2157  0.3114  0.0720
 3641PP      PP13745  10.118   1.076  10.041 -0.1914 -0.0792 -0.0778
 3642PP      PP13746   8.221  13.071  11.928 -0.1059 -0.1533 -0.2297
 3643PP      PP13747   5.549   6.148   3.260  0.0458 -0.0318 -0.0856
 3644PP      PP13748   8.371   3.097   0.306 -0.0339 -0.0259 -0.0860
 3645PP      PP13749  13.755   5.215   1.021 -0.2017  0.2160  0.1387
 3646PP      PP13750   0.418  14.160   9.179 -0.0551 -0.1180  0.0408
 3647PP      PP13751  12.684   5.441   0.601 -0.0205 -0.1767 -0.0907
 3648PP      PP13752   2.609   9.358  12.426  0.0049 -0.1077 -0.1499
 3649PP      PP13753   7.925   9.597  12.828  0.3364 -0.2632 -0.1459
 3650PP      PP13754  10.723   1.251   2.489  0.0740  0.1284  0.2931
 3651PP      PP13755   8.739   4.118   9.844  0.2033  0.1032  0.1276
 3652PP      PP13756   6.660  13.879   9.538 -0.1510  0.1617 -0.2257
 3653PP      PP13757  13.969  13.460  11.036 -0.0250 -0.2685 -0.1425
 3654PP      PP13758  10.083  15.043  12.514 -0.0024 -0.3077 -0.0504
 3655PP      PP13759   8.156   3.792   2.416  0.0422 -0.2667 -0.0185
 3656PP      PP13760  15.250   7.300   2.990 -0.0743 -0.3575 -0.3700
 3657PP      PP13761   2.587  15.266   2.903 -0.1010  0.0766  0.0682
 3658PP      PP13762  14.310   7.727   2.426  0.1430  0.1250  0.4536
 3659PP      PP13763   9.835  13.714   1.537  0.0454  0.3058 -0.1947
 3660PP      PP13764   6.156  12.429   3.060 -0.1455  0.0069  0.2078
 3661PP      PP13765   8.467  14.049   1.214  0.0105 -0.2922 -0.1341
 3662PP      PP13766   0.223  12.784  12.889  0.0801 -0.1119  0.1633
 3663PP      PP13767  10.406   5.055   0.681  0.2298  0.0452  0.4528
 3664PP      PP13768  11.650   3.071   0.390 -0.0474 -0.1468  0.0208
 3665PP      PP13769  10.640  11.606   9.737  0.0892 -0.2842  0.2033
 3666PP      PP13770   9.955  11.072  10.185  0.0947  0.0462  0.0227
 3667PP      PP13771  12.972  10.756   1.247  0.2537  0.0178  0.0941
 3668PP      PP13772   6.901   1.279  11.000 -0.1705  0.6192 -0.2242
 3669PP      PP13773   4.181   2.196  12.212 -0.2219 -0.1926  0.0844
 3670PP      PP13774   5.322  11.199   0.109  0.2962  0.1127  0.0422
 3671PP      PP13775  11.322  11.554   3.524  0.0004 -0.1124  0.0705
 3672PP      PP13776   5.893  11.311   8.935 -0.2344 -0.0319 -0.2284
 3673PP      PP13777   9.730   3.855   3.839  0.1499  0.0602  0.2677
 3674PP      PP13778   1.466   2.265   3.326 -0.0122 -0.3451 -0.2647
 3675PP      PP13779   2.237   3.304  10.717  0.2332  0.1279  0.0152
 3676PP      PP13780   1.587   8.436  11.507 -0.1335 -0.0212 -0.0194
 3677PP      PP13781   7.817   6.532   2.381 -0.2987 -0.2101 -0.3753
 3678PP      PP13782   0.712   1.207   3.959 -0.0721 -0.1675  0.0388
 3679PP      PP13783   5.310   6.704  13.004  0.1552 -0.0991  0.0938
 3680PP      PP13784   2.630  11.502   4.710  0.2546  0.0730  0.1913
 3681PP      PP13785   8.762   7.790   2.553 -0.0254 -0.0435 -0.3045
 3682PP      PP13786   2.561   3.478   2.233 -0.6733  0.0329 -0.0482
 3683PP      PP13787   9.080  11.188   1.881 -0.1076 -0.1920 -0.1332
 3684PP      PP13788  12.466   1.431   2.796  0.1371 -0.2429  0.2960
 3685PP      PP13789   1.329   2.909  11.174 -0.2187 -0.0268 -0.0523
 3686PP      PP13790  11.708   6.216   3.722 -0.2540 -0.2251 -0.2959
 3687PP      PP13791   6.349   5.831   1.367  0.0325  0.0329 -0.1538
 3688PP      PP13792   9.606   4.952  12.491 -0.0038  0.1409  0.2758
 3689PP      PP13793   9.694   6.246   3.512  0.0654  0.0556  0.0629
 3690PP      PP13794   3.369   1.458   0.666 -0.0130  0.2269  0.0385
 3691PP      PP13795  10.168  12.113   1.297  0.0001 -0.0999 -0.1305
 3692PP      PP13796   7.410   5.772  11.104 -0.1741  0.0659  0.1747
 3693PP      PP13797  12.792   3.266   8.796  0.0401  0.1772  0.3763
 3694PP      PP13798   5.984  12.907  10.619 -0.0303  0.0472 -0.3351
 3695PP      PP13799   2.360   2.065  12.409  0.3631 -0.0045  0.3216
 3696PP      PP13800   3.564   4.402  11.699  0.2488  0.2962 -0.2143
 3697PP      PP13801   6.791  11.107   9.261  0.2085  0.2217  0.3032
 3698PP      PP13802   5.330   0.133   1.496 -0.1490  0.0727 -0.6147
 3699PP      PP13803  14.243   3.216   1.257  0.2767  0.2001 -0.1480
 3700PP      PP13804   5.771   6.221  11.726 -0.0103 -0.0414 -0.3400
 3701PP      PP13805   1.206  13.379   8.487  0.0060  0.1335 -0.0219
 3702PP      PP13806  10.015   9.943   3.757  0.2241  0.1741  0.3316
 3703PP      PP13807  15.762   2.735   4.582  0.1360 -0.1021 -0.0581
 3704PP      PP13808  10.964   2.770   9.760  0.0956 -0.2397 -0.3200
 3705PP      PP13809  15.280   5.282   3.370  0.0155 -0.1642  0.2452
 3706PP      PP13810  13.599   9.198  12.796 -0.0593  0.0235 -0.0398
 3707PP      PP13811   6.354  13.013   4.584  0.2875  0.0544 -0.0978
 3708PP      PP13812   2.638   3.598  10.616 -0.2356  0.0378  0.0331
 3709PP      PP13813   3.049   8.964   0.817 -0.1991 -0.2372  0.3164
 3710PP      PP13814   7.104   9.550   2.647 -0.0808 -0.0280  0.0953
 3711PP      PP13815  15.339   9.906   9.917  0.2374  0.1508  0.0838
 3712PP      PP13816  15.461  10.852  10.079  0.0015  0.1880 -0.0408
 3713PP      PP13817   7.173  10.185  10.795  0.0447  0.2408 -0.0396
 3714PP      PP13818   0.716   2.887   0.401 -0.0495  0.1626  0.0291
 3715PP      PP13819  13.351   3.852   2.579  0.0566  0.3553  0.0130
 3716PP      PP13820   3.549   3.553  12.130 -0.0617 -0.2718  0.2915
 3717PP      PP13821   7.378  13.623   1.250  0.1258  0.1046  0.1418
 3718PP      PP13822  11.534   4.103   4.727 -0.1004 -0.3536  0.3083
 3719PP      PP13823   0.670   0.972   2.408  0.0784  0.3290 -0.1667
 3720PP      PP13824   4.892  13.709   2.310 -0.1537  0.1046  0.0613
 3721PP      PP13825  12.451   3.990  10.171 -0.2067  0.0302  0.1159
 3722PP      PP13826  15.550   2.360   4.025 -0.2152  0.4151  0.0197
 3723PP      PP13827   7.673   9.155   3.964 -0.1701  0.1648 -0.2081
 3724PP      PP13828   0.809   7.797   5.349  0.0449 -0.0740 -0.1209
 3725PP      PP13829   9.252   9.530  10.182 -0.0434  0.0939 -0.0758
 3726PP      PP13830  11.116  14.511   2.215  0.2069 -0.1456 -0.1093
 3727PP      PP13831   8.503  11.239   2.868  0.1300 -0.0595  0.2633
 3728PP      PP13832  10.219   2.050  11.412  0.0833  0.0838  0.3364
 3729PP      PP13833   5.234   3.714   1.337  0.0410 -0.0720 -0.2547
 3730PP      PP13834   3.532  13.910   3.742 -0.1232 -0.1057 -0.1638
 3731PP      PP13835  14.579   8.451  12.814 -0.2960 -0.0766 -0.1105
 3732PP      PP13836   4.223  14.144   9.752 -0.1421 -0.1002  0.0006
 3733PP      PP13837   3.958   7.660   4.415 -0.3253 -0.1392  0.2395
 3734PP      PP13838   0.469   6.749   2.582  0.1466  0.1978  0.0058
 3735PP      PP13839   0.617  11.024   3.248  0.1255  0.2964  0.0462
 3736PP      PP13840   6.089  14.608   4.007 -0.0050 -0.0069 -0.1067
 3737PP      PP13841   8.717  11.566   1.062  0.1205 -0.3379  0.0043
 3738PP      PP13842  11.093   0.867   9.828  0.1472  0.2022  0.1696
 3739PP      PP13843  13.940   7.025   3.837 -0.0856 -0.0426  0.1951
 3740PP      PP13844   7.873   1.439  11.557  0.1408  0.2775 -0.0248
 3741PP      PP13845  15.111  15.888  11.148  0.2147  0.1561 -0.1505
 3742PP      PP13846   4.617  12.376   1.051 -0.1425 -0.0048 -0.0394
 3743PP      PP13847   4.482   2.242   0.806 -0.2259  0.1069  0.2011
 3744PP      PP13848   1.204   7.077   3.016 -0.1032  0.2003 -0.0638
 3745PP      PP13849   3.695   4.504   1.274  0.0029  0.2701  0.2457
 3746PP      PP13850   2.959  10.873   0.628 -0.1737  0.0168  0.0360
 3747PP      PP13851   5.555   0.872   8.944  0.1301  0.0705 -0.0686
 3748PP      PP13852  13.336   9.272   2.726 -0.1126 -0.1266  0.0083
 3749PP      PP13853   6.646   9.927  13.281  0.1001 -0.0102 -0.2588
 3750PP      PP13854   7.020  11.811   4.202 -0.0775  0.0277  0.3225
 3751PP      PP13855  10.219   3.033  10.644 -0.1606 -0.0444 -0.1545
 3752PP      PP13856  13.798   3.971   4.030 -0.0798 -0.3234 -0.0444
 3753PP      PP13857   0.923   7.554   2.571  0.2406  0.0287 -0.0885
 3754PP      PP13858   5.367   9.289  11.603 -0.0759  0.0817 -0.3331
 3755PP      PP13859  13.955   2.408   2.802 -0.1133  0.1307  0.0872
 3756PP      PP13860  11.562  10.282   1.547  0.2370  0.0599  0.1094
 3757PP      PP13861  12.425   3.598   5.167  0.0940  0.1319  0.1345
 3758PP      PP13862   6.768  12.333  10.184  0.3903  0.3216 -0.1539
 3759PP      PP13863   2.702   3.568  11.956  0.4042 -0.1058  0.0456
 3760PP      PP13864   5.279   7.703  10.520 -0.0466  0.1571  0.2418
 3761PP      PP13865   2.454   2.942  11.257 -0.3956  0.1930 -0.1900
 3762PP      PP13866   8.383   5.641   1.425 -0.3873 -0.1833 -0.2635
 3763PP      PP13867   2.390   1.462   8.847  0.2945  0.0581 -0.0336
 3764PP      PP13868   8.001   1.486   1.493  0.1863  0.1259  0.0598
 3765PP      PP13869   0.715   2.003   1.673  0.1289  0.0001  0.1517
 3766PP      PP13870  14.257   5.277  12.110  0.0104 -0.1860 -0.0605
 3767PP      PP13871  11.748   3.541   1.905  0.0029  0.1830  0.0235
 3768PP      PP13872  13.413  14.718  10.195 -0.1993 -0.1108  0.2973
 3769PP      PP13873   4.197   8.406   5.142 -0.3412 -0.0574  0.0722
 3770PP      PP13874   8.255   8.900   0.597 -0.4177 -0.0921 -0.1520
 3771PP      PP13875  10.360  10.813  10.252  0.0815  0.0241 -0.3124
 3772PP      PP13876  14.502  12.842   3.715  0.0103 -0.1546 -0.1421
 3773PP      PP13877  11.820   0.715   2.254  0.0773 -0.0211  0.0542
 3774PP      PP13878   1.310  14.185  12.589 -0.0850  0.1709 -0.1522
 3775PP      PP13879   1.145  13.822   3.213 -0.1063 -0.0224 -0.0687
 3776PP      PP13880  11.436   1.980  11.768  0.2250  0.0105 -0.2158
 3777PP      PP13881  10.357  13.564   1.730 -0.0672 -0.1179 -0.0029
 3778PP      PP13882   4.702  15.548   2.690  0.1072  0.1033  0.0645
 3779PP      PP13883  12.088  10.646   8.628 -0.0084  0.0465 -0.0025
 3780PP      PP13884   3.290  11.248   0.749  0.2070 -0.0144  0.3245
 3781PP      PP13885   3.601  10.353   9.922  0.1353  0.0809  0.1682
 3782PP      PP13886  14.597   3.887  10.840  0.2568  0.0072  0.3480
 3783PP      PP13887   9.707   3.302  12.716  0.0276  0.0641  0.3308
 3784PP      PP13888   9.506   4.359  10.065 -0.0197 -0.1936 -0.2340
 3785PP      PP13889   6.205   0.457  13.137 -0.2200 -0.1027  0.2333
 3786PP      PP13890   1.146  11.687   1.166  0.0587  0.1597 -0.3687
 3787PP      PP13891   6.141  11.357   2.509  0.1612 -0.1508  0.0573
 3788PP      PP13892  11.798   4.821   2.249  0.0454  0.0486  0.0052
 3789PP      PP13893   2.152   0.614   3.374 -0.2374  0.1017 -0.0850
 3790PP      PP13894   6.321   9.703  12.843  0.0088 -0.2242 -0.0164
 3791PP      PP13895   5.624  10.517   0.838 -0.1127 -0.1613 -0.1025
 3792PP      PP13896  14.088   6.245  12.289  0.2276 -0.4274  0.1539
 3793PP      PP13897   5.324  10.609   1.788  0.5439 -0.0500 -0.2916
 3794PP      PP13898   8.450  13.419   1.020 -0.3983 -0.0297  0.2927
 3795PP      PP13899  10.840   0.600  10.165  0.0034  0.1931  0.2738
 3796PP      PP13900   1.416   5.503   3.115  0.0785 -0.2201 -0.3079
 3797PP      PP13901   4.994  13.448   1.630  0.0426  0.2493  0.2975
 3798PP      PP13902  11.826   2.897   3.462  0.0420 -0.3631 -0.0413
 3799PP      PP13903   9.221  12.277   9.450  0.2600 -0.3991 -0.2750
 3800PP      PP13904   0.870  10.938  10.040 -0.0159  0.0133 -0.0407
 3801PP      PP13905  11.296  14.201   9.783  0.0229  0.1376 -0.1694
 3802PP      PP13906  12.476   7.466  11.501  0.0049 -0.0562 -0.0459
 3803PP      PP13907   4.442   6.344   0.289 -0.2421  0.1330  0.2808
 3804PP      PP13908   5.925   0.935  12.615 -0.2142  0.0816  0.1836
 3805PP      PP13909  12.460  13.926   8.837 -0.1306  0.2806 -0.1507
 3806PP      PP13910   5.659  12.209  12.528  0.0640 -0.2660  0.2812
 3807PP      PP13911   8.165   4.909   2.930 -0.2356  0.2146  0.0887
 3808PP      PP13912   1.458   8.664   9.811 -0.1171  0.0763  0.0978
 3809PP      PP13913   0.149   6.916  12.299 -0.2376  0.0308 -0.1044
 3810PP      PP13914  15.474   0.312  11.442 -0.2848  0.2422  0.3038
 3811PP      PP13915  11.623  10.758   8.487  0.2190  0.0609  0.2445
 3812PP      PP13916  12.226   4.994   2.480 -0.1191  0.3210 -0.0160
 3813PP      PP13917   2.433  13.966  10.737 -0.0810  0.0443 -0.3777
 3814PP      PP13918  11.484  13.743   8.533 -0.0986 -0.1467 -0.0161
 3815PP      PP13919   5.404  10.303   0.298  0.0364  0.1305 -0.0312
 3816PP      PP13920   2.373   2.413   9.114 -0.0118 -0.3413 -0.0172
 3817PP      PP13921   4.583   4.314   9.448  0.0918  0.0315  0.1790
 3818PP      PP13922   0.400  13.400   8.055 -0.2982  0.1724 -0.1644
 3819PP      PP13923  14.723  13.530  11.475  0.2256  0.0335  0.1101
 3820PP      PP13924  15.889   3.144  10.258  0.0148  0.0606  0.1180
 3821PP      PP13925   6.137   7.725   3.076 -0.1439  0.0404 -0.1742
 3822PP      PP13926   8.884   7.893  11.641 -0.0229 -0.3941 -0.1371
 3823PP      PP13927   6.877   5.159   3.045 -0.1215 -0.0517 -0.0047
 3824PP      PP13928  10.041   2.508  12.339  0.0323  0.0251 -0.4156
 3825PP      PP13929   8.858   9.692   0.396  0.0099 -0.1970  0.0022
 3826PP      PP13930   1.070  15.719  13.368  0.0493 -0.0785 -0.1050
 3827PP      PP13931  12.408   5.315   4.436 -0.1112 -0.0715 -0.2204
 3828PP      PP13932   9.140  12.114   2.743 -0.0397 -0.0988  0.1879
 3829PP      PP13933   0.152   5.917  12.703 -0.1793  0.1564  0.1055
 3830PP      PP13934   1.804   8.291   9.953 -0.1310  0.4087  0.0687
 3831PP      PP13935   6.677   7.492   2.264 -0.0767  0.0242 -0.0734
 3832PP      PP13936  13.091  13.743  11.540  0.1817  0.0980  0.1520
 3833PP      PP13937   0.328   4.642   2.312  0.3117  0.1665  0.0257
 3834PP      PP13938  13.197   6.056   9.710 -0.1221  0.0270 -0.3082
 3835PP      PP13939   1.520   8.927   2.629 -0.1214 -0.0888 -0.0288
 3836PP      PP13940   2.393   9.935   2.323  0.0920  0.0859  0.1291
 3837PP      PP13941   2.317   6.408   5.102  0.2306  0.1605 -0.1638
 3838PP      PP13942   1.763   4.999   1.126 -0.3043 -0.2226 -0.2397
 3839PP      PP13943   1.140   5.901  11.301  0.0936  0.0909 -0.4135
 3840PP      PP13944   4.501   0.099   0.431  0.1973  0.4103 -0.0755
 3841PP      PP13945  12.173   4.059   2.213 -0.0489  0.1051  0.1515
 3842PP      PP13946  12.698   8.650   4.675  0.0433  0.0027  0.0768
 3843PP      PP13947   8.558  14.060  10.881  0.0997 -0.1540 -0.0523
 3844PP      PP13948  12.169   0.565   2.544  0.1732  0.2340  0.0244
 3845PP      PP13949   6.707  10.395  13.100  0.4537  0.0030  0.4355
 3846PP      PP13950   5.230  10.858  12.606  0.1529  0.0491 -0.1603
 3847PP      PP13951   0.732   9.823   0.482  0.3090  0.1858  0.3871
 3848PP      PP13952  10.106  12.240  10.334  0.2544  0.1387 -0.2693
 3849PP      PP13953   0.526   0.959  11.832 -0.1569 -0.0161  0.0657
 3850PP      PP13954  14.962  11.980   9.680 -0.0503  0.2111 -0.3531
 3851PP      PP13955   6.271  15.247   9.948 -0.2860 -0.1199  0.0527
 3852PP      PP13956   7.394   3.791   1.867  0.1314  0.2715 -0.0356
 3853PP      PP13957   7.394   1.163   2.131  0.1542  0.0168 -0.1023
 3854PP      PP13958  13.881   4.610  10.714  0.3840  0.2658 -0.1459
 3855PP      PP13959  11.079  11.825   0.752  0.0226 -0.1790 -0.0965
 3856PP      PP13960   7.238  13.548  11.972  0.2169 -0.1060  0.1721
 3857PP      PP13961   3.567  14.195  12.106  0.4412 -0.2232  0.2654
 3858PP      PP13962  10.622   3.643   9.475  0.0668  0.5077  0.0683
 3859PP      PP13963   6.560  15.766   9.068  0.1562  0.0436  0.0681
 3860PP      PP13964  12.251   0.457  10.103 -0.0207  0.1443  0.0711
 3861PP      PP13965  11.958  11.578   2.622  0.1411 -0.2033  0.1789
 3862PP      PP13966   3.528   7.374  12.756  0.0015  0.1460 -0.1935
 3863PP      PP13967   0.611  12.803   3.624  0.1444  0.1312  0.1018
 3864PP      PP13968  11.315  10.421   1.978  0.0136 -0.0378  0.0659
 3865PP      PP13969   0.203  14.448  11.494  0.0143  0.1220  0.2319
 3866PP      PP13970   2.738  10.436  11.309 -0.1019 -0.0212  0.0071
 3867PP      PP13971   0.056   8.891   3.096  0.0272 -0.0132 -0.0074
 3868PP      PP13972   6.376  14.268   5.224  0.1463 -0.0459 -0.0787
 3869PP      PP13973   1.930  12.843   3.797  0.0258 -0.0653  0.2707
 3870PP      PP13974  15.895   4.198  10.253 -0.3282  0.0299  0.5877
 3871PP      PP13975   9.085   2.673   2.582  0.1463 -0.2047  0.1124
 3872PP      PP13976  15.557   7.439  13.444 -0.0099 -0.0635 -0.1653
 3873PP      PP13977   6.473  14.035  12.576 -0.0676  0.0471 -0.1847
 3874PP      PP13978  15.235   0.525  11.089  0.0041  0.2559  0.0711
 3875PP      PP13979   2.682  11.361   3.035  0.2386  0.2340 -0.0310
 3876PP      PP13980  14.008   1.095   1.365 -0.1804  0.1219 -0.1578
 3877PP      PP13981   0.180   7.562   1.190 -0.0130 -0.0382  0.2037
 3878PP      PP13982  11.667   2.675   2.048  0.0832 -0.0649 -0.0264
 3879PP      PP13983  13.423  11.807   2.473 -0.1207  0.1444  0.3635
 3880PP      PP13984   5.900   1.266  10.664 -0.0244 -0.1881 -0.0124
 3881PP      PP13985  13.649   5.038  10.179 -0.1787  0.0434  0.1177
 3882PP      PP13986   3.532   9.906  10.701  0.0590 -0.1880 -0.1094
 3883PP      PP13987   1.990  15.240   3.486 -0.0472  0.1427 -0.1811
 3884PP      PP13988   1.725   7.519  10.273  0.1012 -0.1282  0.1125
 3885PP      PP13989   9.857   3.769  12.871  0.2275 -0.5020  0.1164
 3886PP      PP13990  15.251   3.270  11.228  0.0927 -0.0413 -0.2061
 3887PP      PP13991   8.476  10.060  10.743 -0.1859  0.1842  0.0270
 3888PP      PP13992  14.108   7.997   1.952  0.0342 -0.4180 -0.0041
 3889PP      PP13993   5.288  13.948  10.578  0.1950 -0.3531 -0.0333
 3890PP      PP13994   7.926   5.933   4.729  0.1523 -0.2649  0.0079
 3891PP      PP13995  13.275  10.260  11.435 -0.1781  0.3317  0.0327
 3892PP      PP13996   1.783   4.646  10.075  0.0048  0.2249 -0.2926
 3893PP      PP13997  11.438  13.507   1.760 -0.2963 -0.0438  0.2500
 3894PP      PP13998   7.395   8.330   3.680  0.1344  0.3306 -0.1336
 3895PP      PP13999   4.851  15.705  11.726  0.2895  0.0329  0.1937
 3896PP      PP14000   1.621   5.212  12.881  0.2955  0.3026 -0.0255
 3897PP      PP14001   1.359  11.048  12.463  0.3182 -0.3321 -0.0795
 3898PP      PP14002  10.828  14.880  12.063  0.0387 -0.2749  0.2514
 3899PP      PP14003   4.610   3.836   9.180  0.0971 -0.0154 -0.0343
 3900PP      PP14004   9.073   2.220   9.183  0.0877 -0.1362 -0.0822
 3901PP      PP14005  12.618  14.829  11.345 -0.0787 -0.1344  0.1366
 3902PP      PP14006   5.963  12.149   5.008  0.0524 -0.0252  0.1166
 3903PP      PP14007  13.162  11.006   0.041 -0.2442  0.3070  0.1036
 3904PP      PP14008   5.667  12.252   2.339  0.2554  0.1742  0.1799
 3905PP      PP14009   1.690   0.483  12.711  0.1326  0.4159  0.0529
 3906PP      PP14010  15.811  12.384   4.106  0.0901  0.0821  0.1253
 3907PP      PP14011  12.282   3.599  11.894 -0.2610  0.0902  0.2074
 3908PP      PP14012  11.350   9.381   0.044  0.0691  0.1044  0.0025
 3909PP      PP14013   6.439   6.358   1.347  0.2034  0.1947  0.1778
 3910PP      PP14014  12.121   3.327   9.942 -0.1403  0.5433 -0.0895
 3911PP      PP14015  10.439   9.045  11.575 -0.3155  0.0920  0.1439
 3912PP      PP14016   3.451   0.226   3.398  0.2301  0.1822  0.1257
 3913PP      PP14017   4.964   3.076   8.940  0.0859  0.0124 -0.0693
 3914PP      PP14018   4.067  11.277  10.585  0.0394  0.0278 -0.0496
 3915PP      PP14019   1.210   3.210   4.736  0.1669 -0.3527 -0.2386
 3916PP      PP14020   2.178  11.411   3.279  0.1863 -0.1788  0.4268
 3917PP      PP14021   2.652   6.430   0.423 -0.0793 -0.1217 -0.1828
 3918PP      PP14022  15.734   7.280   4.389 -0.0281  0.3068  0.0339
 3919PP      PP14023   0.256   9.290  12.232  0.0599 -0.2432 -0.1787
 3920PP      PP14024  14.958   8.648   2.131 -0.0399 -0.3475  0.1065
 3921PP      PP14025  12.143  10.720  12.513 -0.0255  0.1694  0.2434
 3922PP      PP14026   0.295   1.920   0.872 -0.0984  0.3022  0.1496
 3923PP      PP14027   3.745   1.861   4.689  0.3299  0.1592  0.1950
 3924PP      PP14028   6.511  10.316   2.590 -0.5126 -0.1094  0.0599
 3925PP      PP14029   2.736  14.020   1.579 -0.2171 -0.2222 -0.1603
 3926PP      PP14030  13.118   7.873  12.254  0.1328 -0.3964 -0.5016
 3927PP      PP14031  13.844  15.893   9.629 -0.1634 -0.1130  0.0768
 3928PP      PP14032  12.395   9.532   2.484 -0.1927 -0.0900 -0.0552
 3929PP      PP14033  10.823   7.496   2.799  0.1497 -0.4483 -0.1722
 3930PP      PP14034   0.151  12.438   3.496 -0.2044  0.0572  0.3065
 3931PP      PP14035   7.059  14.254  10.652 -0.0498  0.0117  0.0015
 3932PP      PP14036  11.949  14.229  10.976 -0.1590 -0.1379 -0.0099
 3933PP      PP14037  13.629   2.517   9.727  0.0301 -0.0903 -0.1475
 3934PP      PP14038   7.833   9.760   1.126 -0.1474 -0.0991 -0.2623
 3935PP      PP14039   9.553  14.547   9.673  0.0092 -0.0631  0.0469
 3936PP      PP14040  14.830   4.464  12.515  0.0450  0.1880 -0.0742
 3937PP      PP14041  10.642   4.573  13.390 -0.0024  0.0650 -0.0907
 3938PP      PP14042   4.196  12.633  11.936 -0.1802 -0.0675  0.0087
 3939PP      PP14043   3.488  15.530  12.731 -0.1337 -0.3283 -0.0777
 3940PP      PP14044  12.001   8.855  13.128 -0.0670 -0.0950 -0.3986
 3941PP      PP14045  13.546  13.122   1.427  0.1623  0.0736  0.1131
 3942PP      PP14046   5.926   2.137   1.770 -0.2779  0.6049 -0.0422
 3943PP      PP14047   2.226   0.877  11.289 -0.0529  0.1226  0.0473
 3944PP      PP14048   2.010   9.458   9.474  0.0745 -0.1601 -0.2966
 3945PP      PP14049  15.818  13.484   1.961 -0.0854 -0.1312  0.1659
 3946PP      PP14050   1.695   3.879   1.260 -0.0748 -0.0181 -0.2835
 3947PP      PP14051   2.117  13.476  12.596 -0.0436 -0.0821 -0.2191
 3948PP      PP14052   2.626   2.647  11.631  0.0116  0.0547  0.0015
 3949PP      PP14053  14.341   4.084   0.103  0.1324 -0.2286  0.2931
 3950PP      PP14054  13.138   0.817   9.800 -0.2289  0.0385  0.1714
 3951PP      PP14055   4.039   2.270   1.036  0.0980  0.2565  0.0895
 3952PP      PP14056   4.858   7.915  12.846  0.1775  0.3224  0.0401
 3953PP      PP14057   9.490  15.861   3.303  0.3911 -0.1356 -0.0217
 3954PP      PP14058   8.150   5.425  12.642 -0.2113 -0.1698 -0.0918
 3955PP      PP14059  13.481   6.597   4.469 -0.0508  0.0231 -0.0380
 3956PP      PP14060   6.365   5.207   4.084  0.1834 -0.2321  0.1641
 3957PP      PP14061   7.705   3.223  11.810 -0.1685  0.1463  0.1233
 3958PP      PP14062  10.883  14.945   1.614  0.1187  0.2130  0.0790
 3959PP      PP14063   8.354   3.984  10.273  0.2114 -0.0195  0.0186
 3960PP      PP14064   0.965   5.100   3.693  0.3065 -0.0984  0.0900
 3961PP      PP14065   8.152   4.718   0.389  0.0643 -0.0063 -0.0449
 3962PP      PP14066  15.755  12.072   0.998  0.0300  0.2610  0.2550
 3963PP      PP14067   7.444   0.985   4.254  0.0592  0.1813 -0.1269
 3964PP      PP14068   3.742  14.298   9.519 -0.3336 -0.0696  0.2936
 3965PP      PP14069   1.970   2.122   1.661  0.0055 -0.0556 -0.0275
 3966PP      PP14070   3.606   2.660   9.310 -0.1696  0.1995 -0.1702
 3967PP      PP14071  14.803   6.040   9.722  0.1424 -0.1430 -0.1822
 3968PP      PP14072  10.005  12.150  10.825  0.1878 -0.1120 -0.0464
 3969PP      PP14073  14.849  14.848   2.502 -0.1363 -0.2894 -0.4588
 3970PP      PP14074   5.040   2.552   8.855 -0.0848  0.0608 -0.0219
 3971PP      PP14075   1.433   7.613   4.157  0.2442  0.0693  0.1148
 3972PP      PP14076   5.241   2.478   4.150  0.3964 -0.0826  0.0930
 3973PP      PP14077   1.625   5.650  12.029  0.0696 -0.1292 -0.0449
 3974PP      PP14078  10.913   2.004   0.043  0.1707  0.0260  0.4450
 3975PP      PP14079   2.376  15.147   0.361 -0.1192  0.1053  0.0378
 3976PP      PP14080  14.174  15.379   1.546 -0.2073  0.2493 -0.1377
 3977PP      PP14081  10.812   9.165  11.957 -0.0620 -0.1823  0.0172
 3978PP      PP14082   9.982   0.255   9.680  0.0789  0.1456  0.1834
 3979PP      PP14083  13.635   2.958  11.217 -0.2916 -0.0124 -0.1074
 3980PP      PP14084  12.533  13.966   1.972  0.0838  0.0523 -0.1918
 3981PP      PP14085  10.207   0.884   9.513 -0.1103 -0.0769  0.0277
 3982PP      PP14086   5.358  11.445  12.882  0.1578  0.0231 -0.3739
 3983PP      PP14087   2.980   4.499  10.597 -0.2587  0.1052 -0.1652
 3984PP      PP14088   0.759   9.391  10.845 -0.1341 -0.1228 -0.2113
 3985PP      PP14089   7.261   4.783  11.138 -0.3120  0.0419 -0.1904
 3986PP      PP14090   0.953  14.666   8.626 -0.1189 -0.3132 -0.0830
 3987PP      PP14091  13.887   4.643   2.330  0.2621 -0.1389  0.0109
 3988PP      PP14092   0.525   2.254   0.148  0.0353  0.2732 -0.1377
 3989PP      PP14093  13.710  10.841   2.336 -0.1306  0.1875  0.0513
 3990PP      PP14094  13.790  11.640   9.663  0.3843  0.2955 -0.2390
 3991PP      PP14095   8.111   3.250  12.164 -0.0843 -0.0171 -0.1689
 3992PP      PP14096  12.311   2.378   0.849  0.0192  0.0208 -0.1610
 3993PP      PP14097   1.897   8.791   1.930 -0.0517 -0.2616 -0.1797
 3994PP      PP14098  13.483  14.347  12.938  0.0272  0.2594 -0.0598
 3995PP      PP14099   8.562   5.069   0.547  0.1542 -0.0048 -0.0481
 3996PP      PP14100  15.892   5.385   4.188 -0.3768  0.0030 -0.0134
 3997PP      PP14101   1.400   6.180  13.126 -0.0275  0.0764  0.1107
 3998PP      PP14102   2.815   2.618   0.020  0.0664  0.2393 -0.1505
 3999PP      PP14103   8.733  12.115   0.255  0.1519  0.0030 -0.0720
 4000PP      PP14104   4.912  11.600  11.108  0.0038  0.3233 -0.1122
 4001PP      PP14105   0.159  14.011   0.740  0.0428  0.0798 -0.1153
 4002PP      PP14106   7.965  11.836   1.913  0.1950  0.1221 -0.1176
 4003PP      PP14107   4.105  10.575  10.516 -0.1056 -0.1808 -0.0878
 4004PP      PP14108   5.460   4.279   9.457  0.1085 -0.0773  0.2808
 4005PP      PP14109   7.204  14.062   1.619 -0.0441 -0.2573 -0.0097
 4006PP      PP14110  15.528   6.540   4.685 -0.0314  0.0706 -0.1935
 4007PP      PP14111   7.502   0.576  11.014 -0.3250 -0.1377 -0.2955
 4008PP      PP14112   7.179  13.580   8.509  0.0964 -0.3008 -0.0996
 4009PP      PP14113  10.606  15.852  10.289  0.0484  0.3338  0.1278
 4010PP      PP14114   9.853   4.086  10.918 -0.1465  0.0861  0.0634
 4011PP      PP14115   8.188   6.635   0.851 -0.0909  0.4243  0.2474
 4012PP      PP14116   8.960   7.639   4.344 -0.0297 -0.2295 -0.2696
 4013PP      PP14117   7.944   6.807   1.325  0.1910 -0.1464 -0.0283
 4014PP      PP14118   7.740   9.333   9.363 -0.2780 -0.2302  0.0103
 4015PP      PP14119   0.550   0.813  10.033  0.2091  0.1175  0.0493
 4016PP      PP14120   9.015   4.931   3.203  0.0492  0.0206 -0.2941
 4017PP      PP14121   4.103   7.819   1.787 -0.3494 -0.1398  0.0398
 4018PP      PP14122  11.188  13.988   2.592  0.0965  0.1118  0.0549
 4019PP      PP14123   3.382   5.197   2.582  0.3341  0.1775  0.2274
 4020PP      PP14124  14.988  14.291   2.627 -0.0790  0.1009 -0.0019
 4021PP      PP14125   1.121  12.757   3.463  0.2133  0.1472  0.0257
 4022PP      PP14126  11.924  14.649   7.243  0.1755 -0.0083  0.2203
 4023PP      PP14127  13.993  12.039   9.841  0.1690 -0.2665  0.2341
 4024PP      PP14128   3.740   4.161   3.823  0.0979  0.1890  0.2320
 4025PP      PP14129   0.089   2.954  10.868  0.0399  0.1165 -0.1278
 4026PP      PP14130   5.662  12.801   9.672  0.1717 -0.1395  0.1182
 4027PP      PP14131   4.866   6.339  11.413  0.0210  0.0268  0.2440
 4028PP      PP14132   7.804   5.394   9.224  0.2706 -0.0608 -0.0327
 4029PP      PP14133  10.238   4.969  10.580  0.1924 -0.0129  0.2888
 4030PP      PP14134   8.888   7.769  12.117 -0.2098  0.1259 -0.0126
 4031PP      PP14135   8.696   4.951  10.728  0.0668  0.2813 -0.2827
 4032PP      PP14136  11.147   8.137   1.498  0.0891  0.5248  0.0050
 4033PP      PP14137  12.301   5.577  10.142  0.2429  0.0186  0.1487
 4034PP      PP14138   4.902   8.542   9.886  0.2334  0.0092  0.2102
 4035PP      PP14139   0.679  11.045   9.583  0.1324 -0.0902 -0.1116
 4036PP      PP14140  10.318   5.546   3.673  0.1547 -0.1148  0.1264
 4037PP      PP14141  13.583   4.581  13.261  0.2755  0.0489 -0.0852
 4038PP      PP14142   4.807   0.823   0.056 -0.0674  0.2205  0.0980
 4039PP      PP14143  12.024   8.169   1.215 -0.1085  0.3608 -0.0852
 4040PP      PP14144   5.724  11.770   1.359 -0.1386  0.0957 -0.0143
 4041PP      PP14145  15.745  15.455  10.267  0.0951 -0.1045 -0.3300
 4042PP      PP14146   6.868   6.156  12.576 -0.1323 -0.2484 -0.0313
 4043PP      PP14147  14.970  10.211  13.172  0.0992 -0.0392  0.0577
 4044PP      PP14148   2.393  13.446   3.913  0.0433  0.1036  0.1527
 4045PP      PP14149   4.653   8.631  10.325 -0.1534 -0.1959  0.1319
 4046PP      PP14150  15.311   4.926   9.346  0.1347  0.2781 -0.1133
 4047PP      PP14151   9.811  14.310   2.916 -0.0705  0.1186 -0.0847
 4048PP      PP14152  10.005   1.602   3.082 -0.3480  0.2196 -0.2291
 4049PP      PP14153  13.185   4.100   3.415 -0.0523 -0.0687 -0.0894
 4050PP      PP14154  11.548   5.296   4.091  0.0656  0.1500 -0.0287
 4051PP      PP14155   1.289   2.762   3.833  0.0035  0.3054 -0.1539
 4052PP      PP14156   3.204  12.756   0.384  0.2504 -0.1377  0.1860
 4053PP      PP14157  11.553   0.977   8.931 -0.0348 -0.0595 -0.1015
 4054PP      PP14158  14.451  13.228   2.183  0.1427  0.1776  0.1506
 4055PP      PP14159   9.342  14.359  12.223  0.0079  0.0309  0.3899
 4056PP      PP14160   3.684   2.777   0.287 -0.0156 -0.6128  0.1783
 4057PP      PP14161  13.779  11.344  10.059  0.1180  0.0326 -0.2500
 4058PP      PP14162  10.132   0.467   2.224 -0.1372  0.1250  0.2242
 4059PP      PP14163  10.491   7.499   9.678  0.2061 -0.0190 -0.0696
 4060PP      PP14164   1.603  11.999   0.520 -0.2102  0.0464 -0.2233
 4061PP      PP14165   6.334   5.002   3.475  0.1371  0.1290 -0.1299
 4062PP      PP14166   8.842   4.488   9.496  0.1649 -0.1000  0.0573
 4063PP      PP14167   4.026   1.028   1.242 -0.2220 -0.2866 -0.0805
 4064PP      PP14168   7.301  15.552  12.226 -0.2060 -0.1006 -0.2259
 4065PP      PP14169   0.743  12.327   9.927  0.2284  0.0497 -0.2717
 4066PP      PP14170   6.474   9.534   0.683  0.0201  0.0878  0.0477
 4067PP      PP14171   3.980   1.490   0.350 -0.2152 -0.2000 -0.0362
 4068PP      PP14172  14.865  13.572  12.388  0.0171 -0.0243  0.1203
 4069PP      PP14173   2.103  12.245  10.001  0.3659  0.0395 -0.0264
 4070PP      PP14174   7.594   5.176   1.252  0.2016  0.0487  0.3929
 4071PP      PP14175   8.529  12.157   3.170 -0.2228 -0.3003 -0.1701
 4072PP      PP14176   9.120   7.085   3.339  0.4452  0.3834 -0.0019
 4073PP      PP14177  10.813   8.036   1.853  0.0156 -0.2591 -0.2522
 4074PP      PP14178   9.545  11.369   2.118  0.1258  0.2919 -0.0897
 4075PP      PP14179   1.048  14.157  11.776 -0.2326  0.1134  0.1472
 4076PP      PP14180   0.381  15.060   9.643 -0.0646  0.2762  0.1475
 4077PP      PP14181   6.535   3.607   0.126  0.0430 -0.0798 -0.0893
 4078PP      PP14182  11.736   8.336   2.132  0.2126  0.0113 -0.0103
 4079PP      PP14183   6.509  10.860  12.183  0.1314 -0.1885 -0.3580
 4080PP      PP14184  11.015   2.169   2.189 -0.1626  0.1072 -0.1110
 4081PP      PP14185   7.237   8.173   2.386  0.1902  0.1786 -0.0314
 4082PP      PP14186   2.578  14.395   1.922 -0.2683  0.0218  0.3032
 4083PP      PP14187   5.932  12.944  10.088  0.1116 -0.0745 -0.1398
 4084PP      PP14188   0.441   7.243  12.020  0.0466  0.0024  0.0574
 4085PP      PP14189   5.452   3.141  12.555 -0.2674 -0.0558  0.1033
 4086PP      PP14190  10.625  10.702  10.658 -0.0854 -0.2156  0.1302
 4087PP      PP14191   3.518   9.406   1.428 -0.3935 -0.3899 -0.1467
 4088PP      PP14192   2.644   8.659   1.632 -0.0822 -0.2135 -0.0013
 4089PP      PP14193   9.898   7.695   4.484  0.0985  0.0878  0.2719
 4090PP      PP14194  13.297  10.192  13.397 -0.0397  0.1322 -0.1792
 4091PP      PP14195   5.123  14.236  13.018  0.0265  0.2082  0.1549
 4092PP      PP14196   7.785   5.544   2.642  0.3667 -0.0697  0.1030
 4093PP      PP14197   4.632   1.158   1.546 -0.0541  0.1837 -0.3870
 4094PP      PP14198   9.862   5.974   1.117 -0.2451 -0.2818  0.1465
 4095PP      PP14199   9.946  11.059  11.304 -0.0180 -0.0973 -0.2848
 4096PP      PP14200   8.854   6.775  11.790  0.0391 -0.1366  0.1132
 4097PP      PP14201   0.012   9.349   2.182 -0.4522 -0.0070 -0.1458
 4098PP      PP14202   5.901   2.374   0.633  0.0537 -0.0653 -0.1996
 4099PP      PP14203  11.491   3.322   8.938  0.1244  0.1626  0.2254
 4100PP      PP14204  10.586   9.652   4.272  0.2031  0.1954  0.0703
 4101PP      PP14205  12.227  11.237   2.886  0.1512 -0.1088 -0.0475
 4102PP      PP14206   5.183   9.105   1.539 -0.2487 -0.1068  0.2548
 4103PP      PP14207  10.732   0.149   0.699  0.0074  0.3763  0.0369
 4104PP      PP14208  10.412   0.490   3.965  0.1916  0.1221  0.1354
 4105PP      PP14209   0.198  12.855  11.585 -0.0826  0.3104 -0.1477
 4106PP      PP14210  13.786  13.090  11.308 -0.4437  0.0663  0.0520
 4107PP      PP14211   2.545  14.655   9.754 -0.0304  0.0663  0.1725
 4108PP      PP14212  13.989   6.509   1.170  0.1358  0.1170  0.2906
 4109PP      PP14213  11.264   9.843  12.965  0.1709  0.0875 -0.2182
 4110PP      PP14214   4.374   0.574   0.218 -0.0304 -0.0708  0.0501
 4111PP      PP14215  13.460   2.349   3.968 -0.1944  0.0883 -0.2259
 4112PP      PP14216  12.659   4.345  12.448 -0.2590  0.4169  0.0010
 4113PP      PP14217   2.740   2.084   0.252 -0.3549 -0.0042 -0.0601
 4114PP      PP14218  10.334   9.983  11.963 -0.0424 -0.4168  0.1620
 4115PP      PP14219   6.915   2.375   1.535  0.3070 -0.2040 -0.0379
 4116PP      PP14220  10.501  14.548  10.149  0.3026  0.0695  0.0727
 4117PP      PP14221   9.667   1.147   1.661  0.1257  0.1308  0.0765
 4118PP      PP14222   6.949   6.082   2.143 -0.1191  0.4117  0.2251
 4119PP      PP14223  13.982  12.889  12.285 -0.0472 -0.0527  0.0103
 4120PP      PP14224   2.354   2.015  11.150 -0.1888  0.2901 -0.0404
 4121PP      PP14225   2.845   3.271   1.013 -0.1758  0.1043 -0.2985
 4122PP      PP14226   3.035   8.073  12.783  0.0060  0.0098 -0.0334
 4123PP      PP14227  13.388   1.203   1.975  0.1250 -0.4094 -0.1816
 4124PP      PP14228  14.201  11.334   3.975 -0.0198 -0.3424 -0.0528
 4125PP      PP14229   7.211  14.307   4.262 -0.1237  0.1946 -0.0524
 4126PP      PP14230   7.970  12.839   0.137 -0.3296 -0.2059 -0.1256
 4127PP      PP14231   6.764   8.223  12.859 -0.4835 -0.1088  0.2702
 4128PP      PP14232  14.460   1.103   3.755  0.0429  0.1724 -0.0604
 4129PP      PP14233   4.896   5.759   0.398  0.2103 -0.3080 -0.0154
 4130PP      PP14234   1.033  15.533  11.497  0.0856 -0.1020  0.1020
 4131PP      PP14235  13.650   8.124   9.805  0.3154 -0.0354 -0.2765
 4132PP      PP14236   2.625   0.152   1.053  0.0020  0.1521  0.0795
 4133PP      PP14237  15.887  11.898  11.879  0.2579  0.2855  0.0272
 4134PP      PP14238  14.665   1.557  12.581  0.0069 -0.1809 -0.0268
 4135PP      PP14239   9.772  15.162   0.504 -0.1647 -0.1990 -0.1848
 4136PP      PP14240   2.934  13.137  11.191 -0.0369 -0.1443  0.0623
 4137PP      PP14241   9.836  12.304  11.689  0.2599  0.0885 -0.0990
 4138PP      PP14242   3.330   5.949   2.097  0.4631 -0.5680 -0.3586
 4139PP      PP14243  13.142   0.370  11.610  0.1745 -0.2232 -0.2189
 4140PP      PP14244  15.279   3.167  13.428  0.0007  0.4328 -0.0904
 4141PP      PP14245   7.141   4.651   1.852  0.0295  0.0219 -0.3671
 4142PP      PP14246   3.038  14.753   3.684  0.0429  0.0135  0.1917
 4143PP      PP14247   4.310   3.960   1.651 -0.1398 -0.0117 -0.2349
 4144PP      PP14248   5.892   6.243  11.133 -0.0926 -0.0349  0.0723
 4145PP      PP14249   7.715  12.721   1.704  0.1460 -0.1799 -0.0548
 4146PP      PP14250  13.511   4.508   4.058  0.0904  0.2269 -0.0492
 4147PP      PP14251  13.680   6.707   3.374 -0.1063  0.4918  0.2106
 4148PP      PP14252  10.253   3.801   3.973 -0.3604  0.2126  0.2069
 4149PP      PP14253   7.400   6.028  10.167  0.1332  0.2054 -0.2701
 4150PP      PP14254   7.550  14.850  11.663 -0.0139  0.1359 -0.0780
 4151PP      PP14255  11.383   5.519   4.534  0.0050  0.1735  0.1063
 4152PP      PP14256   2.502  11.607   0.300 -0.0841  0.0830 -0.2920
 4153PP      PP14257  10.837   2.779  11.838 -0.0868 -0.5072 -0.1508
 4154PP      PP14258   1.307  12.651   0.842  0.0713 -0.0637  0.1683
 4155PP      PP14259  11.621   4.497   4.355  0.2368  0.0022  0.1341
 4156PP      PP14260   9.477   9.007   8.888 -0.2050 -0.0591  0.0612
 4157PP      PP14261   2.365   1.202  11.659 -0.0063 -0.1888  0.0200
 4158PP      PP14262  12.054   3.474   2.642 -0.1594 -0.0330  0.0793
 4159PP      PP14263   5.727  11.220   2.955 -0.1333  0.0657 -0.2170
 4160PP      PP14264   5.504  13.468   0.720  0.2041 -0.3782 -0.3415
 4161PP      PP14265  15.464  10.753   3.813  0.1749 -0.0448 -0.1173
 4162PP      PP14266   1.765  13.782  10.431 -0.2123  0.1979  0.2632
 4163PP      PP14267   2.510   7.000  11.149  0.1417 -0.3435  0.0013
 4164PP      PP14268   0.975   0.216  10.549 -0.0372 -0.3250  0.2165
 4165PP      PP14269   4.565   1.104   1.054  0.3417  0.1707  0.0270
 4166PP      PP14270   0.185   4.676  11.855  0.1925 -0.1284 -0.0578
 4167PP      PP14271   9.259   2.709   3.125  0.2137  0.0755  0.0704
 4168PP      PP14272   4.201   2.205   3.414  0.2903 -0.0478  0.0062
 4169PP      PP14273   2.484   2.698   3.878 -0.0230  0.0528 -0.1931
 4170PP      PP14274   1.251  14.990   9.865 -0.0571 -0.1262 -0.1233
 4171PP      PP14275   8.742  12.414   2.745  0.1707 -0.0577 -0.1882
 4172PP      PP14276   1.699  13.804   3.141 -0.2643 -0.2233  0.1743
 4173PP      PP14277   8.121  11.931  11.714  0.0832  0.1825  0.1096
 4174PP      PP14278   7.985  13.156  11.519  0.1188 -0.0374 -0.0136
 4175PP      PP14279   3.757   3.244  12.530  0.0169 -0.1496  0.3113
 4176PP      PP14280  15.524  12.080   8.740 -0.0791  0.0586  0.3997
 4177PP      PP14281   0.751  11.946   3.131  0.0746  0.5018 -0.0081
 4178PP      PP14282  11.460   9.240  10.018  0.2800 -0.0172  0.1549
 4179PP      PP14283   9.621   1.339   2.321 -0.1833 -0.0791 -0.0149
 4180PP      PP14284   7.097   0.182  12.179 -0.0654 -0.2870  0.0760
 4181PP      PP14285  14.676  11.523  13.036 -0.5414  0.2599 -0.0361
 4182PP      PP14286  10.222   2.360   0.001 -0.0821 -0.2915 -0.5355
 4183PP      PP14287   5.926   4.268  11.689  0.0564 -0.3736 -0.0152
 4184PP      PP14288  12.713  14.369  12.159 -0.0781  0.0359  0.1185
 4185PP      PP14289   1.953  12.074   2.452 -0.0300  0.1498  0.0865
 4186PP      PP14290  15.148  14.338  12.466  0.2691  0.1185 -0.1750
 4187PP      PP14291  13.320  14.143   0.869  0.0637 -0.5019 -0.1197
 4188PP      PP14292   0.860  12.623   1.479  0.1896  0.3490  0.0096
 4189PP      PP14293  15.009   2.417   4.050 -0.1439  0.1961 -0.0597
 4190PP      PP14294   6.994   8.532   3.981 -0.0597  0.1028 -0.2531
 4191PP      PP14295   4.201   1.927   9.633 -0.1948  0.2289 -0.0386
 4192PP      PP14296   9.652   1.624  12.918  0.0318 -0.1517 -0.2492
 4193PP      PP14297   8.888  14.686   3.988  0.1283 -0.0536  0.1511
 4194PP      PP14298  10.572   3.878  10.382 -0.0346  0.3151 -0.2035
 4195PP      PP14299   3.738   1.743   9.175  0.1713 -0.2345  0.0611
 4196PP      PP14300   0.840   5.953   1.866 -0.1303 -0.2916 -0.5609
 4197PP      PP14301  10.625   2.326  13.155 -0.1246  0.0355 -0.4156
 4198PP      PP14302  15.041   1.553   0.302 -0.0855  0.2750 -0.0311
 4199PP      PP14303  15.106  14.690   4.007 -0.0389 -0.1832 -0.2108
 4200PP      PP14304   7.855  15.872   0.012  0.1080 -0.2969  0.2777
 4201PP      PP14305   8.616   6.858  12.258  0.0230  0.0293  0.1583
 4202PP      PP14306  15.324  14.609   1.286  0.4189  0.2178 -0.2965
 4203PP      PP14307  11.284  15.406   2.021  0.1093  0.0086 -0.1123
 4204PP      PP14308   9.595   8.366  13.209 -0.1491 -0.1849 -0.0779
 4205PP      PP14309  10.681  13.909   3.740  0.0378  0.0064  0.0792
 4206PP      PP14310   4.209  13.687   9.695 -0.2400  0.1068 -0.1790
 4207PP      PP14311   4.099   2.746   2.287 -0.2300  0.1510 -0.2131
 4208PP      PP14312   4.837   2.324   1.228 -0.2232  0.0073  0.2071
 4209PP      PP14313  12.046  13.397   9.958  0.0193 -0.2008  0.2287
 4210PP      PP14314   9.302  15.445  10.840 -0.5085  0.3110  0.1795
 4211PP      PP14315   6.616  15.463   4.549  0.0287 -0.0992 -0.1137
 4212PP      PP14316  13.243  15.666   3.003 -0.0866  0.0520  0.2879
 4213PP      PP14317   8.680   7.232   3.664 -0.1346  0.1119  0.0919
 4214PP      PP14318  13.755   4.803   3.174  0.1866 -0.4838  0.0028
 4215PP      PP14319   8.916   8.495   3.010 -0.4869 -0.0925  0.0942
 4216PP      PP14320  12.435   5.967   3.222  0.0942 -0.0888 -0.0257
 4217PP      PP14321  13.413   9.035  13.271  0.0922  0.0586  0.1155
 4218PP      PP14322   6.648  10.208   5.296  0.0214 -0.0173  0.1099
 4219PP      PP14323  12.527   2.918   2.177 -0.1089 -0.2025  0.1272
 4220PP      PP14324   0.468   3.921  13.287 -0.0317  0.1345  0.1016
 4221PP      PP14325  14.538   9.715   8.855 -0.0757  0.0742 -0.3917
 4222PP      PP14326  15.343   7.256  10.251  0.1813 -0.2080  0.2978
 4223PP      PP14327  13.929   0.778   9.340 -0.2892 -0.2339 -0.2810
 4224PP      PP14328   9.404   7.513   4.582  0.0087 -0.1265  0.0188
 4225PP      PP14329   8.031   4.297   0.161  0.2872 -0.0999  0.1176
 4226PP      PP14330   2.822   1.939  10.840 -0.1474 -0.0963  0.0177
 4227PP      PP14331   9.241   2.361  12.598  0.1328 -0.0958 -0.2206
 4228PP      PP14332   7.391  13.715   2.456 -0.1114  0.0742 -0.2030
 4229PP      PP14333  10.071   7.195   3.679 -0.0361 -0.0563 -0.0660
 4230PP      PP14334  13.237  11.465  10.867  0.1128  0.4433 -0.2026
 4231PP      PP14335   8.515   6.195   2.802 -0.0683 -0.2352 -0.1483
 4232PP      PP14336  10.786  11.270   4.006  0.0463  0.1610 -0.0077
 4233PP      PP14337   5.586   3.010  10.757  0.3200  0.0103 -0.0154
 4234PP      PP14338   2.847   4.355   2.755  0.1663 -0.1766  0.1086
 4235PP      PP14339  11.021   5.215   4.092  0.1904 -0.3156  0.0306
 4236PP      PP14340   2.042   6.592   2.176  0.2027 -0.0171 -0.2819
 4237PP      PP14341  14.063   7.686   2.893  0.2409 -0.0613 -0.1199
 4238PP      PP14342  12.119   0.874   3.570 -0.2602 -0.1075  0.2427
 4239PP      PP14343   4.563  12.527  10.187 -0.0859 -0.1675  0.0281
 4240PP      PP14344  15.146   7.130   4.346 -0.2337  0.0429 -0.0161
 4241PP      PP14345  11.670  10.828   9.954 -0.2837  0.0550  0.1006
 4242PP      PP14346  15.457  10.950   2.956 -0.0993  0.1543  0.0152
 4243PP      PP14347  13.827   5.576   1.346 -0.2147  0.3169 -0.0867
 4244PP      PP14348  10.926   7.130   9.287  0.1117 -0.0003  0.3388
 4245PP      PP14349  11.911   1.995   1.798  0.3486  0.0066  0.0321
 4246PP      PP14350   9.313   3.580   3.068  0.2159 -0.0690 -0.3089
 4247PP      PP14351  14.776   3.648   9.998  0.2582  0.1081 -0.2974
 4248PP      PP14352   2.105  11.911   3.428  0.0657 -0.1264  0.1568
 4249PP      PP14353  10.278   3.382   2.818  0.0238 -0.2020 -0.0821
 4250PP      PP14354   7.824   8.375  10.325 -0.2722  0.2618 -0.1497
 4251PP      PP14355   1.179  15.766   1.446  0.2347  0.1430  0.1809
 4252PP      PP14356  10.819  12.454   0.050  0.0269  0.0921  0.1944
 4253PP      PP14357  13.987  14.348  10.794 -0.1036 -0.0156  0.0702
 4254PP      PP14358   6.757   8.468  10.911 -0.0106 -0.2668 -0.1910
 4255PP      PP14359   2.171  15.089   1.201  0.1564  0.0315  0.0049
 4256PP      PP14360   0.305  11.854   3.810  0.0111 -0.4134 -0.1106
 4257PP      PP14361   7.131  12.254   0.919 -0.0518  0.1232 -0.1932
 4258PP      PP14362   2.968   3.141   4.371 -0.1883 -0.0308  0.0020
 4259PP      PP14363  15.240  13.837   1.024  0.0108 -0.0517 -0.2326
 4260PP      PP14364   8.890  14.239  10.372  0.5405  0.3489 -0.0314
 4261PP      PP14365   9.040   2.333  10.891 -0.0465 -0.0801 -0.0408
 4262PP      PP14366  12.646   3.162  11.924 -0.1280  0.0945 -0.0672
 4263PP      PP14367  15.491  10.317  10.894  0.0487  0.1127 -0.2236
 4264PP      PP14368   0.438   5.770   4.126  0.0255  0.0270 -0.4436
 4265PP      PP14369   7.399   3.904   3.550  0.1187 -0.0797  0.1398
 4266PP      PP14370   7.037  15.066   2.352 -0.0534 -0.1333  0.0864
 4267PP      PP14371  13.785  13.286   9.244 -0.3637  0.3654  0.0013
 4268PP      PP14372   7.710   0.743   2.161 -0.1941  0.2140  0.2884
 4269PP      PP14373   8.978  10.365   1.981  0.0751 -0.0530 -0.1572
 4270PP      PP14374   6.174   4.193  12.230  0.2359  0.2597  0.3469
 4271PP      PP14375   3.020  10.671   9.611  0.1435  0.1857  0.1448
 4272PP      PP14376   4.259  15.174   9.798  0.1393 -0.2203  0.0414
 4273PP      PP14377  11.986   4.869  10.868  0.0560  0.1788 -0.2462
 4274PP      PP14378   3.832  12.864   9.884  0.0541 -0.3756  0.0646
 4275PP      PP14379  10.759   1.454   3.997  0.0116  0.2917 -0.0657
 4276PP      PP14380  11.116   1.505  10.621 -0.2012  0.1071 -0.0168
 4277PP      PP14381   9.576   8.443  12.531 -0.2272 -0.1262  0.0552
 4278PP      PP14382  13.253   6.937   4.228  0.2729  0.2002  0.1052
 4279PP      PP14383   1.506   3.982   1.883  0.1398  0.4716  0.0933
 4280PP      PP14384   3.888   8.076   5.329  0.0356  0.0306 -0.0548
 4281PP      PP14385  15.061  11.586   0.004  0.1484 -0.1771  0.2062
 4282PP      PP14386  12.070   0.858   9.895 -0.0187 -0.0249  0.0301
 4283PP      PP14387   4.627   1.965   9.227  0.4464  0.0349 -0.0102
 4284PP      PP14388  15.530   4.986   0.891 -0.1999  0.0932  0.2622
 4285PP      PP14389  13.938   6.963   1.257  0.1407 -0.0454 -0.1337
 4286PP      PP14390  11.247   6.863   9.952 -0.4416  0.1246  0.2218
 4287PP      PP14391   0.928  10.382   0.682  0.0152 -0.1262 -0.1661
 4288PP      PP14392  10.773  11.598   1.101 -0.2163 -0.2769  0.0854
 4289PP      PP14393  11.096  10.377  10.598 -0.0851 -0.0275  0.2552
 4290PP      PP14394   7.344   6.148   1.385 -0.0100  0.0473 -0.0668
 4291PP      PP14395  15.272   5.277   4.288  0.1155 -0.3257 -0.0147
 4292PP      PP14396  13.440  10.325   0.825  0.0137 -0.2956  0.1722
 4293PP      PP14397   8.365  11.724  12.103  0.0032 -0.0202  0.0423
 4294PP      PP14398  14.609  13.147  13.364  0.0334  0.0703 -0.2801
 4295PP      PP14399   8.786   8.995   0.353 -0.0692 -0.0014 -0.1121
 4296PP      PP14400   0.895  11.962   9.550 -0.1114 -0.1762 -0.0440
 4297PP      PP14401   8.321  13.874   1.758 -0.2018  0.0048  0.0582
 4298PP      PP14402   3.604   2.404  11.126  0.1606 -0.2875  0.1980
 4299PP      PP14403   9.734   5.440   3.586  0.4964  0.1606 -0.1119
 4300PP      PP14404   3.907   8.690   0.335  0.0001  0.1618  0.2487
 4301PP      PP14405   7.782   8.799   4.446 -0.1307  0.1680  0.3034
 4302PP      PP14406  11.425  12.563   1.568  0.4322  0.0201 -0.0456
 4303PP      PP14407  15.385   0.318   1.510  0.4220 -0.2231 -0.1801
 4304PP      PP14408   1.741  11.012   2.072  0.2338  0.0264  0.1545
 4305PP      PP14409   7.480  11.747   4.277  0.0558  0.2167 -0.1056
 4306PP      PP14410   7.606   7.056   1.650 -0.2139  0.0417 -0.2196
 4307PP      PP14411   8.608   7.861  12.976 -0.2234 -0.2344 -0.2515
 4308PP      PP14412  14.653   1.087   9.723 -0.0048 -0.1201  0.2547
 4309PP      PP14413   2.559  12.290  10.097 -0.2400 -0.0444 -0.2736
 4310PP      PP14414  15.338   0.912  12.591 -0.3611 -0.0155 -0.1105
 4311PP      PP14415   6.790  14.498  11.037  0.2679 -0.0397 -0.1326
 4312PP      PP14416   9.800   3.878   0.019 -0.2795 -0.2572 -0.2128
 4313PP      PP14417  13.194  10.556  12.193  0.1527 -0.1849 -0.1480
 4314PP      PP14418   3.756  14.860  12.932 -0.2022  0.4401  0.1806
 4315PP      PP14419   4.242   5.984  10.874 -0.0515  0.0405 -0.1066
 4316PP      PP14420   3.041   6.114   3.153 -0.1353 -0.1537 -0.1868
 4317PP      PP14421   6.976   9.752   9.602  0.1731  0.1775 -0.0841
 4318PP      PP14422  11.813  11.857  12.211  0.4443  0.0133  0.1723
 4319PP      PP14423   4.294   9.761   2.631 -0.0186 -0.2110 -0.1142
 4320PP      PP14424   4.817  12.135   4.524  0.0585  0.2328  0.1099
 4321PP      PP14425   9.299  11.995   4.366  0.3044 -0.1067  0.3096
 4322PP      PP14426   4.712   5.660   4.573 -0.0317 -0.1650  0.3311
 4323PP      PP14427  11.296   1.623   3.769 -0.1517 -0.1433  0.1658
 4324PP      PP14428   5.774   7.834  13.218 -0.3627  0.1684  0.1085
 4325PP      PP14429  12.456  11.504   2.540 -0.1565  0.0071 -0.1193
 4326PP      PP14430   2.458   9.548  11.552 -0.1957 -0.2571 -0.1576
 4327PP      PP14431  12.788   8.435   8.795 -0.0905 -0.1157 -0.0120
 4328PP      PP14432  13.983   8.460   1.779 -0.2264 -0.1228 -0.1267
 4329PP      PP14433   1.552  13.355  13.116 -0.0873  0.1373 -0.1474
 4330PP      PP14434   4.758   6.821  13.431  0.0513  0.0810 -0.0262
 4331PP      PP14435   7.231  11.269   4.216  0.0548  0.0499 -0.0546
 4332PP      PP14436  13.231  12.868   9.963  0.0177  0.0014 -0.3231
 4333PP      PP14437   6.723   8.048   2.304 -0.1535 -0.1055  0.0011
 4334PP      PP14438   5.345  14.236  11.117  0.2233 -0.4139  0.0106
 4335PP      PP14439  10.199   7.194  10.690 -0.0410 -0.0669 -0.4258
 4336PP      PP14440  10.314   0.309   0.929 -0.1267 -0.1079 -0.1114
 4337PP      PP14441   9.681   1.370  10.785 -0.1945 -0.1474  0.0009
 4338PP      PP14442  10.674   1.882   9.825  0.2170 -0.3832  0.0828
 4339PP      PP14443   6.782  15.163   3.197  0.0841  0.1048  0.3852
 4340PP      PP14444   0.517   8.477  11.532 -0.1201 -0.1105  0.1360
 4341PP      PP14445   1.690  10.467   1.907  0.2765  0.1556 -0.4452
 4342PP      PP14446   6.607   9.348  10.313  0.1989  0.2548 -0.0099
 4343PP      PP14447   0.360   1.126  12.356  0.1776  0.2415  0.0429
 4344PP      PP14448  14.116  11.636   2.978 -0.2618  0.3704  0.2097
 4345PP      PP14449   9.574   5.802  12.447 -0.1788  0.2466 -0.0931
 4346PP      PP14450   9.389   2.869  13.386  0.1066  0.1881 -0.0938
 4347PP      PP14451  10.494  12.784  12.091 -0.1578  0.3526  0.4904
 4348PP      PP14452   7.357  11.687   9.732 -0.1645  0.1625  0.0998
 4349PP      PP14453  15.326   9.248   3.786 -0.0020  0.3766 -0.0015
 4350PP      PP14454  15.565   1.750   2.564 -0.0542 -0.0476 -0.1912
 4351PP      PP14455   2.929  12.854   2.356  0.3967 -0.0492  0.1107
 4352PP      PP14456   1.472   3.601   2.188  0.0612  0.1266  0.0364
 4353PP      PP14457   1.917  13.631   1.957  0.1610  0.0283  0.0270
 4354PP      PP14458   4.409  14.352  11.807 -0.0770 -0.0012 -0.1000
 4355PP      PP14459   0.996  10.634  13.363 -0.1279  0.2824  0.0682
 4356PP      PP14460   8.848  14.847  11.465  0.2543  0.2832 -0.2723
 4357PP      PP14461   6.696   4.217   2.110 -0.1827  0.0269  0.1732
 4358PP      PP14462   5.441   0.428   2.496 -0.0661  0.1420 -0.1202
 4359PP      PP14463  13.599   9.313   4.319 -0.0194 -0.0545 -0.3201
 4360PP      PP14464  13.811  11.362   2.558  0.2612 -0.2909 -0.2700
 4361PP      PP14465   8.063   0.399   1.257  0.0219  0.1698  0.0873
 4362PP      PP14466  13.481  14.488   2.263  0.1398  0.3643  0.0366
 4363PP      PP14467   3.390  15.190  10.207 -0.0434 -0.0352  0.0099
 4364PP      PP14468  12.578   4.574  11.035 -0.0970  0.0477  0.2785
 4365PP      PP14469  15.105   5.240   2.619  0.0919 -0.5048  0.0529
 4366PP      PP14470   4.640  14.877   3.416 -0.0093  0.2218  0.0805
 4367PP      PP14471   4.780   2.982   2.999  0.0866  0.1428 -0.1453
 4368PP      PP14472   8.507   7.973  10.455  0.3145  0.0300 -0.5142
 4369PP      PP14473   9.390   6.297   0.941 -0.2333  0.3101  0.1143
 4370PP      PP14474  15.604  14.949   2.719  0.1680 -0.1708 -0.0109
 4371PP      PP14475   4.235   9.248  11.789  0.0140 -0.3209  0.0040
 4372PP      PP14476   6.470   8.692   3.997  0.2786  0.1625  0.0708
 4373PP      PP14477   8.611   5.140   1.061  0.0717 -0.1595  0.2675
 4374PP      PP14478   7.781   4.704  12.122  0.1451 -0.0025  0.1613
 4375PP      PP14479   8.886  14.000   1.844  0.3406  0.1258  0.3441
 4376PP      PP14480   0.465  14.449   8.482  0.2014  0.1249 -0.1792
 4377PP      PP14481   0.281   6.872  10.988 -0.3611  0.0596 -0.1482
 4378PP      PP14482  11.542  15.580  10.001  0.0165 -0.2136  0.1582
 4379PP      PP14483  12.079   1.812  10.153 -0.3125 -0.3799  0.1004
 4380PP      PP14484   0.302   1.366   9.094  0.0751 -0.1803 -0.0073
 4381PP      PP14485  12.063   6.039   9.511 -0.3851  0.0316  0.0455
 4382PP      PP14486  12.898   9.268   9.476 -0.0190 -0.2725 -0.1777
 4383PP      PP14487   2.486   3.044  12.767 -0.0398 -0.0738 -0.1094
 4384PP      PP14488   6.758   4.649   9.999 -0.2444 -0.1579  0.5179
 4385PP      PP14489   7.526  14.333   0.603  0.1894 -0.0296  0.2021
 4386PP      PP14490   6.708  14.144  11.469 -0.2023  0.2665  0.3077
 4387PP      PP14491  15.613   7.508  11.736 -0.0212  0.0022 -0.2705
 4388PP      PP14492   1.182   4.715   4.008  0.2125 -0.0273  0.0575
 4389PP      PP14493   5.019   8.319   2.179 -0.0834  0.0568  0.3614
 4390PP      PP14494   4.071   6.569  10.900  0.0888  0.0297 -0.0161
 4391PP      PP14495  14.797  13.428  12.980  0.0627 -0.4151  0.0728
 4392PP      PP14496   8.937   8.243   3.417 -0.2022  0.0100 -0.5241
 4393PP      PP14497   4.946  13.649  11.826 -0.2044 -0.2853 -0.0799
 4394PP      PP14498  12.095   2.912   9.727 -0.0794  0.0979 -0.1392
 4395PP      PP14499   1.585   5.062   3.860  0.0015  0.1726  0.0149
 4396PP      PP14500   3.944  15.623   3.007 -0.1337  0.0908 -0.0122
 4397PP      PP14501   5.341   0.454  10.888 -0.3042 -0.0238  0.3739
 4398PP      PP14502  10.376   7.417   0.426  0.1763  0.2375  0.1104
 4399PP      PP14503  12.359   6.055   5.026 -0.0379 -0.2160  0.0279
 4400PP      PP14504   5.177  15.236   1.626 -0.0278  0.3880 -0.1706
 4401PP      PP14505  13.587   2.622  13.077 -0.1468 -0.0426  0.2764
 4402PP      PP14506  10.165   0.757   3.127  0.0051 -0.1554 -0.4554
 4403PP      PP14507   1.312  13.241  12.610 -0.2632 -0.3528 -0.0140
 4404PP      PP14508  14.336  15.019  11.647  0.1679  0.1796 -0.0699
 4405PP      PP14509   6.937   0.124   9.243 -0.2358 -0.0756 -0.1166
 4406PP      PP14510   7.223   2.208   9.672  0.0730  0.2336  0.0244
 4407PP      PP14511  12.747   9.542   8.934 -0.5198  0.1166  0.0165
 4408PP      PP14512  13.493  14.066  13.361  0.1440  0.2362 -0.0951
 4409PP      PP14513  15.564   8.856   3.491 -0.0319  0.0083  0.0420
 4410PP      PP14514   4.552   4.141  10.553  0.0756  0.2386  0.1419
 4411PP      PP14515   7.563  13.685   3.805 -0.2014 -0.3231 -0.3665
 4412PP      PP14516  15.016   7.665  11.027  0.3528 -0.0032 -0.0334
 4413PP      PP14517   8.373   7.695   2.216 -0.2905 -0.1169 -0.0736
 4414PP      PP14518  14.739  10.939   0.675  0.0243 -0.0021  0.1610
 4415PP      PP14519   2.217   7.685  11.573 -0.1930 -0.0349  0.1725
 4416PP      PP14520   7.522   2.267  11.841  0.0352  0.1631 -0.0734
 4417PP      PP14521   5.143   8.109   1.724  0.0528  0.1915  0.1008
 4418PP      PP14522  10.047   5.707   2.071  0.0480  0.0559  0.1508
 4419PP      PP14523  13.859   5.541   9.872 -0.2473 -0.0410 -0.0394
 4420PP      PP14524  11.268  10.958   9.108  0.1496  0.0840 -0.4570
 4421PP      PP14525   2.735   2.843   9.662  0.0568 -0.1728 -0.0204
 4422PP      PP14526   7.817   1.287   3.951 -0.0355 -0.1731 -0.0021
 4423PP      PP14527   0.101  11.011   4.500 -0.0753  0.2917  0.0478
 4424PP      PP14528  12.545   8.863   2.542 -0.0848 -0.2664  0.0185
 4425PP      PP14529   1.521   2.592   9.679 -0.2014  0.1247 -0.0213
 4426PP      PP14530  15.145  12.515  12.603  0.2328  0.0973  0.4149
 4427PP      PP14531   7.434   6.990  11.822 -0.2087  0.1932  0.1609
 4428PP      PP14532   7.565  14.697  10.037  0.2974 -0.2435 -0.0014
 4429PP      PP14533   5.702  12.363  12.052 -0.0004  0.2000 -0.1553
 4430PP      PP14534  13.736   7.362   9.327  0.0723 -0.0044 -0.5560
 4431PP      PP14535  11.300   2.380   1.268  0.0351 -0.1402 -0.0677
 4432PP      PP14536   5.910   9.035  10.680 -0.3202  0.0777 -0.1497
 4433PP      PP14537   4.634   6.018  11.780  0.1402 -0.1257 -0.1231
 4434PP      PP14538   6.724   6.742   4.671  0.2138 -0.1299  0.1333
 4435PP      PP14539  13.323  13.217  11.569 -0.0556  0.0127 -0.1511
 4436PP      PP14540  10.965   1.961   3.915  0.1158 -0.2932  0.0329
 4437PP      PP14541   6.433   0.898   8.983  0.0177 -0.1017 -0.0084
 4438PP      PP14542   4.222   8.458   0.638 -0.3095 -0.2802  0.0223
 4439PP      PP14543  14.392   0.796   8.694 -0.1401  0.1117  0.1670
 4440PP      PP14544   1.600   3.140  12.657  0.3028 -0.1215 -0.0368
 4441PP      PP14545   2.859   8.208   1.492 -0.2678 -0.1180  0.1909
 4442PP      PP14546  14.844   2.807   3.694  0.0754 -0.0227  0.1922
 4443PP      PP14547  14.363   0.422   1.277 -0.1020  0.0748 -0.1711
 4444PP      PP14548  10.225   4.689   2.873  0.0878  0.0499 -0.0761
 4445PP      PP14549   5.956   2.559   0.076 -0.2221 -0.2437 -0.0803
 4446PP      PP14550  11.135   7.038  10.974  0.0321  0.3111  0.0332
 4447PP      PP14551   7.621  12.174   5.623 -0.0109  0.0889  0.1730
 4448PP      PP14552   7.763   4.092   4.334  0.1680 -0.2732 -0.4000
 4449PP      PP14553  13.970  14.636   2.185  0.0328  0.1448  0.0821
 4450PP      PP14554   8.876   2.395  11.578  0.0196 -0.3143  0.2153
 4451PP      PP14555   5.236   3.777   2.217  0.0556  0.0819 -0.2099
 4452PP      PP14556  10.809  12.172   8.508 -0.4322  0.0155  0.0961
 4453PP      PP14557   7.950   9.765  10.638  0.2813  0.1594  0.0385
 4454PP      PP14558  10.957   1.365  11.260  0.0462  0.1947 -0.1575
 4455PP      PP14559   2.203  13.564  13.400 -0.0338 -0.1608 -0.2475
 4456PP      PP14560  14.004   1.308   0.132 -0.3720  0.3818 -0.0341
 4457PP      PP14561  12.631   5.424  10.570 -0.2029 -0.1180 -0.1490
 4458PP      PP14562   9.234   4.063   9.234  0.3130 -0.0796  0.1193
 4459PP      PP14563  11.945   5.031  11.918 -0.1729 -0.1107  0.0496
 4460PP      PP14564   1.222  10.719  11.644  0.0039 -0.4467 -0.0890
 4461PP      PP14565   6.851   0.587   0.897 -0.1010 -0.1757  0.0180
 4462PP      PP14566   7.527  14.123   3.291 -0.2707 -0.2746  0.0637
 4463PP      PP14567   1.673   0.185   2.562 -0.3888 -0.0881  0.2388
 4464PP      PP14568   1.920   7.400   1.742  0.1223  0.2409  0.0344
 4465PP      PP14569   8.204   4.892   4.010 -0.0761 -0.0430  0.0473
 4466PP      PP14570   1.155   9.061  11.462 -0.1069  0.2297  0.4258
 4467PP      PP14571   9.324   9.656   0.201 -0.2206 -0.2973  0.0935
 4468PP      PP14572   6.295   1.235  12.883 -0.3890  0.0125  0.1149
 4469PP      PP14573   8.883   8.080   1.176  0.1407  0.1233  0.2197
 4470PP      PP14574   2.967  15.667   0.913  0.0928  0.0713  0.0389
 4471PP      PP14575  12.485  10.498  12.957  0.2146 -0.0206  0.1014
 4472PP      PP14576   9.477  12.717   0.875 -0.1001 -0.2206 -0.1031
 4473PP      PP14577  15.130  15.358  11.121  0.0137  0.2300 -0.2337
 4474PP      PP14578  13.246  14.568  12.109 -0.1791 -0.0006  0.3477
 4475PP      PP14579   8.764   6.102   1.962 -0.0867  0.2449  0.0695
 4476PP      PP14580   5.492  10.268   4.892 -0.0504  0.2441  0.0684
 4477PP      PP14581  15.239  14.159   1.401  0.1093  0.1687 -0.1242
 4478PP      PP14582   7.549  11.317  10.026 -0.2871  0.0470 -0.3687
 4479PP      PP14583   4.802  14.894   0.368 -0.3399  0.0318  0.2589
 4480PP      PP14584   9.871   1.041   1.094 -0.2314  0.2614 -0.1850
 4481PP      PP14585  10.348   0.988  13.314  0.0473  0.2605 -0.1143
 4482PP      PP14586   5.993   1.117   8.911  0.0362 -0.0033  0.1092
 4483PP      PP14587   8.589   7.323   2.506  0.0858 -0.1787  0.0446
 4484PP      PP14588  12.202   9.319  12.924  0.2324 -0.0198 -0.2582
 4485PP      PP14589   3.611   4.778  11.294 -0.0707 -0.0608 -0.1474
 4486PP      PP14590  13.583   8.133   1.406  0.1072 -0.2917  0.2175
 4487PP      PP14591  13.014  11.571   0.710  0.3389 -0.0889 -0.1383
 4488PP      PP14592  11.513   4.181   0.490  0.1114 -0.2170 -0.1371
 4489PP      PP14593   3.456  12.110   2.792 -0.1338  0.2494 -0.1587
 4490PP      PP14594  15.336  10.969   2.408 -0.1377 -0.3674  0.1186
 4491PP      PP14595  15.113   9.127  13.390 -0.1538  0.1205  0.3396
 4492PP      PP14596   0.602   8.031  10.446 -0.2022 -0.1327  0.1373
 4493PP      PP14597   6.768  11.859   1.150  0.0595  0.0708  0.0926
 4494PP      PP14598   4.268  14.762   4.421 -0.1459 -0.1356 -0.2036
 4495PP      PP14599   1.511   0.674   0.854 -0.0867  0.0945 -0.2918
 4496PP      PP14600  13.027  10.015   4.490 -0.1945  0.3028 -0.3600
 4497PP      PP14601  14.007   7.295  10.152  0.1857  0.0056 -0.1280
 4498PP      PP14602  13.933   2.059   0.491 -0.1772 -0.0740  0.1613
 4499PP      PP14603   4.336  13.283   3.931 -0.1163 -0.0653  0.1655
 4500PP      PP14604  11.805   7.945   4.758 -0.1104  0.1595 -0.0840
 4501PP      PP14605   5.421   1.407  12.199  0.2180 -0.3756  0.2400
 4502PP      PP14606   6.755  10.710   2.778  0.0934 -0.3263  0.1348
 4503PP      PP14607   3.422   8.251   9.734  0.0805  0.1939  0.0064
 4504PP      PP14608  15.308   0.478   3.565 -0.2497 -0.0529  0.1310
 4505PP      PP14609   4.832  14.964  11.379 -0.1329 -0.0666  0.5672
 4506PP      PP14610   4.304   0.144   2.241  0.1114  0.0572 -0.0685
 4507PP      PP14611   1.967   8.550   3.760 -0.2270 -0.1653  0.1858
 4508PP      PP14612  13.265   6.834   3.735  0.1381  0.1248  0.0079
 4509PP      PP14613   6.332  15.076   5.397 -0.2315 -0.2823 -0.2435
 4510PP      PP14614   4.461  12.160   0.139  0.2557  0.1091 -0.0391
 4511PP      PP14615   0.421  14.758  12.996 -0.0672  0.0948 -0.0821
 4512PP      PP14616   2.857   8.405  11.479 -0.0854  0.2632 -0.0018
 4513PP      PP14617   6.038  15.658  13.018 -0.2537 -0.0099  0.1311
 4514PP      PP14618   8.549   3.464  11.957 -0.0041  0.0754  0.0257
 4515PP      PP14619   3.757  14.902  11.527 -0.2091 -0.2603  0.0127
 4516PP      PP14620   4.441  15.166   2.206  0.0781 -0.0648 -0.1898
 4517PP      PP14621   9.309  14.494  13.002 -0.2153 -0.2935 -0.1659
 4518PP      PP14622   6.277   4.869   1.868  0.0241  0.3972  0.1956
 4519PP      PP14623   3.610   8.393   2.394 -0.1268  0.0674  0.1119
 4520PP      PP14624   7.520   1.618   1.382  0.0607  0.3141  0.0024
 4521PP      PP14625  14.424  12.673   1.304 -0.1689  0.0219 -0.0192
 4522PP      PP14626   4.096  15.807  12.001 -0.2326 -0.1626 -0.2830
 4523PP      PP14627  11.127   9.885  11.873  0.3602  0.0007 -0.1286
 4524PP      PP14628  11.394   2.093   1.759 -0.3117 -0.0109 -0.1723
 4525PP      PP14629   9.186   7.006   2.271 -0.2340  0.0706 -0.0559
 4526PP      PP14630  14.800   5.936   9.227 -0.0210  0.0498  0.1316
 4527PP      PP14631  15.301  11.588  11.078  0.0168 -0.1546 -0.2192
 4528PP      PP14632   6.160  14.860  10.407  0.2947 -0.1508 -0.0968
 4529PP      PP14633   1.341  14.327   3.946 -0.1192  0.1648 -0.1293
 4530PP      PP14634   1.765   6.814  12.116 -0.0560 -0.0330  0.2553
 4531PP      PP14635   3.957  11.313  12.748 -0.0636 -0.1946 -0.3017
 4532PP      PP14636   3.759   7.537   1.949  0.2847  0.2716  0.0007
 4533PP      PP14637   5.906   2.086   8.394  0.1327  0.0505  0.0908
 4534PP      PP14638  12.404   4.751   4.397 -0.0318  0.2419 -0.0984
 4535PP      PP14639  14.655  15.252   1.852 -0.0976  0.1161 -0.1706
 4536PP      PP14640   8.747  12.315   4.748  0.3131  0.3786  0.1152
 4537PP      PP14641   4.446   3.131   3.615  0.0831  0.1028 -0.2848
 4538PP      PP14642   0.303   8.078  11.996 -0.3227 -0.0069  0.2851
 4539PP      PP14643   2.689   6.877   0.619  0.2151  0.1229  0.1891
 4540PP      PP14644   0.863   4.688   2.150 -0.1870 -0.0312  0.2432
 4541PP      PP14645   3.635   2.797   1.911 -0.0451 -0.1124  0.0291
 4542PP      PP14646   9.426   5.719  10.381 -0.0470 -0.2661  0.0329
 4543PP      PP14647  11.779   1.201   3.155  0.0032 -0.0351  0.2829
 4544PP      PP14648  10.540   3.294  13.315  0.0774 -0.2087  0.0809
 4545PP      PP14649   5.714   1.895   3.411 -0.3159 -0.3125  0.0918
 4546PP      PP14650   3.005   8.589   4.448  0.3645 -0.1003 -0.0479
 4547PP      PP14651   4.576   7.531  12.279  0.3564 -0.0032 -0.0227
 4548PP      PP14652   9.217   2.128   3.312  0.1343 -0.1927  0.3903
 4549PP      PP14653   7.996   2.845   0.630  0.1600 -0.3396 -0.1927
 4550PP      PP14654   1.839   5.116   4.530 -0.1590  0.2775 -0.1769
 4551PP      PP14655   9.355   7.467   3.027  0.0494 -0.2269  0.2165
 4552PP      PP14656   1.491  11.388   9.332 -0.0538 -0.0310  0.1133
 4553PP      PP14657   6.399   2.350  11.810 -0.1729  0.1339  0.0122
 4554PP      PP14658  11.949   7.275   0.592  0.1566 -0.0439 -0.1564
 4555PP      PP14659  12.839  10.383   2.042 -0.1578  0.1244  0.0600
 4556PP      PP14660  11.867  11.187   3.451  0.2591  0.2115 -0.0659
 4557PP      PP14661  11.481   3.391   2.896 -0.0850  0.1690  0.2723
 4558PP      PP14662   3.908   8.012  12.558 -0.0122  0.3427 -0.0113
 4559PP      PP14663  13.663  14.287   9.203 -0.0813 -0.3496  0.1234
 4560PP      PP14664   8.361   8.878  12.551 -0.1125 -0.1241  0.3647
 4561PP      PP14665   4.637  11.686   0.124  0.2483  0.0746 -0.1861
 4562PP      PP14666  13.016  13.911  12.408  0.2186  0.2294 -0.3048
 4563PP      PP14667   7.203   4.315   2.212  0.3796  0.0526 -0.0666
 4564PP      PP14668   0.403   2.990   0.026  0.3441 -0.4153 -0.2470
 4565PP      PP14669  14.677  15.293  10.124 -0.1812 -0.2154  0.2764
 4566PP      PP14670   7.490  10.434   3.419 -0.2063 -0.0689  0.1031
 4567PP      PP14671   8.061  12.034   2.965 -0.1732 -0.0097  0.2345
 4568PP      PP14672  12.133  12.219  11.607  0.0931  0.2232 -0.0599
 4569PP      PP14673  10.128  14.692   2.019 -0.2742  0.0993  0.2209
 4570PP      PP14674   0.976   1.994  12.664  0.1361  0.2055  0.3438
 4571PP      PP14675  15.708   8.346  11.166  0.4741  0.1330  0.0465
 4572PP      PP14676   1.555   4.505   3.801  0.1461  0.2946  0.3002
 4573PP      PP14677   2.589   4.092  10.802 -0.0343  0.4503 -0.3050
 4574PP      PP14678   4.672   3.031   2.335  0.0165  0.1354  0.1929
 4575PP      PP14679   4.265   8.191  10.412 -0.0343 -0.1326 -0.0581
 4576PP      PP14680   9.757   6.369   1.879  0.0077 -0.2259  0.2811
 4577PP      PP14681  13.526   8.783  11.020 -0.2472  0.0651 -0.2185
 4578PP      PP14682   8.973   5.325   0.122  0.0702  0.0497  0.1330
 4579PP      PP14683   9.132  12.130   1.854  0.0876  0.1050  0.1825
 4580PP      PP14684   6.185   3.924   3.338  0.0999 -0.0587  0.2798
 4581PP      PP14685  11.385   8.456   1.803 -0.0657  0.1145  0.4402
 4582PP      PP14686   4.154   1.159  12.763 -0.3207 -0.1729 -0.1093
 4583PP      PP14687  10.032   9.928   2.200 -0.3675 -0.0508  0.0730
 4584PP      PP14688  12.453   6.001  11.238  0.0282  0.2773  0.1347
 4585PP      PP14689  14.756  13.947  11.746 -0.1501  0.0438  0.2659
 4586PP      PP14690   3.140   3.682   3.767 -0.2624 -0.2523  0.0233
 4587PP      PP14691   7.034   8.485   0.548  0.4615 -0.0146 -0.0863
 4588PP      PP14692  13.751   7.898   2.413 -0.1106 -0.3687  0.1038
 4589PP      PP14693   4.581  11.287   9.538  0.3425 -0.0091  0.0595
 4590PP      PP14694   6.903   1.463   3.951 -0.0642  0.2999  0.0571
 4591PP      PP14695  10.212   8.866   1.196  0.2169  0.0183  0.2374
 4592PP      PP14696   7.864  10.250   8.423  0.2993  0.1095  0.1427
 4593PP      PP14697  13.838   2.327  12.628 -0.0413 -0.2041 -0.1646
 4594PP      PP14698   6.534  10.358  12.090  0.3542 -0.1137  0.0463
 4595PP      PP14699   4.796  15.183   9.353  0.0701  0.3348  0.0807
 4596PP      PP14700  15.282   7.796  11.439  0.1249 -0.1356 -0.1243
 4597PP      PP14701   9.048   2.597   3.615  0.0525 -0.2720  0.0754
 4598PP      PP14702  13.729  10.314   2.391 -0.0771  0.0227  0.1035
 4599PP      PP14703   4.738  10.783   4.066  0.1407 -0.0297  0.1348
 4600PP      PP14704  13.735  10.940   1.253 -0.0435  0.0772  0.3444
 4601PP      PP14705   8.396  14.447  11.174 -0.4126 -0.0199  0.0692
 4602PP      PP14706   6.718   5.502   9.632 -0.2458 -0.2057  0.0194
 4603PP      PP14707   7.307   9.075   1.695 -0.2455  0.0392  0.2873
 4604PP      PP14708  13.233  13.597  11.986 -0.0681 -0.0408  0.0289
 4605PP      PP14709   1.931   2.449   0.291  0.1289  0.0461  0.2421
 4606PP      PP14710   7.425   5.407   3.197 -0.0864  0.2082 -0.0989
 4607PP      PP14711   3.640   4.340  11.053  0.0535 -0.1546 -0.4093
 4608PP      PP14712   3.488   2.925   4.169  0.1965 -0.1594 -0.3395
 4609PP      PP14713  11.860   4.699   2.820  0.0400 -0.1956  0.1791
 4610PP      PP14714   9.278  12.740  10.296  0.0314  0.2744 -0.0114
 4611PP      PP14715   7.642   7.778   9.675 -0.0126  0.2160  0.0197
 4612PP      PP14716  12.074   0.124  13.407  0.1314  0.0183  0.2440
 4613PP      PP14717  13.024  12.607   3.581 -0.1999 -0.1546  0.2035
 4614PP      PP14718  12.104   3.654   3.450  0.0144 -0.3078 -0.3559
 4615PP      PP14719   5.556   4.431  13.060 -0.0175  0.2476 -0.3853
 4616PP      PP14720  13.728   9.306  11.325 -0.0502 -0.1869  0.1295
 4617PP      PP14721   2.717   2.505   0.534  0.3556  0.0596  0.0524
 4618PP      PP14722   6.511  14.803   9.114  0.1649 -0.3614 -0.0283
 4619PP      PP14723  12.392  11.034   9.350  0.1756  0.1330  0.2054
 4620PP      PP14724   0.913  12.321  11.120 -0.0488  0.0375 -0.0653
 4621PP      PP14725  14.036  12.693   3.539  0.2076  0.2123  0.1264
 4622PP      PP14726   8.662   4.834   9.902 -0.4065 -0.1109 -0.0810
 4623PP      PP14727   4.893   9.470   2.727  0.3547 -0.2329  0.0037
 4624PP      PP14728  12.778  10.602   8.069 -0.3208 -0.0594  0.3977
 4625PP      PP14729   5.882   1.737   3.876  0.1633 -0.0803  0.0174
 4626PP      PP14730  12.999  10.896   2.218 -0.0015  0.0672 -0.0874
 4627PP      PP14731  14.782   7.526   9.516 -0.2846  0.1074  0.3943
 4628PP      PP14732  14.034   3.066   9.662  0.3496  0.1698 -0.0242
 4629PP      PP14733   4.440   9.490   1.736  0.1561 -0.0748 -0.0047
 4630PP      PP14734   6.893   2.968   4.040 -0.2468 -0.1988 -0.0728
 4631PP      PP14735   0.103   5.357   2.848  0.0125  0.3499 -0.2994
 4632PP      PP14736  11.324  13.077   0.041  0.0397  0.0426 -0.2743
 4633PP      PP14737  10.467   8.035  10.312 -0.2727 -0.0862  0.0104
 4634PP      PP14738   2.593   4.043   4.265 -0.1188 -0.0997  0.2453
 4635PP      PP14739  14.471   0.278   2.335  0.1593 -0.2897 -0.0897
 4636PP      PP14740   7.179   1.359  12.942  0.0754  0.0092 -0.0572
 4637PP      PP14741  12.554   0.089   1.374 -0.0102 -0.1088  0.0491
 4638PP      PP14742   1.229  13.333   0.027 -0.0463 -0.0942  0.0472
 4639PP      PP14743  13.413   4.048   1.129 -0.0606  0.0708 -0.0580
 4640PP      PP14744   1.297   4.657   9.291  0.0975 -0.2852  0.0411
 4641PP      PP14745   7.193   2.566  11.123 -0.0941  0.0589 -0.0160
 4642PP      PP14746   6.259   5.286   9.793  0.1093 -0.1070  0.2117
 4643PP      PP14747   6.645  12.581  12.738 -0.1557 -0.0096 -0.1104
 4644PP      PP14748   8.983   6.420   1.343  0.0667  0.1332 -0.2775
 4645PP      PP14749  14.890  10.282   3.790 -0.0792 -0.0019  0.1893
 4646PP      PP14750   7.250   9.939   3.012 -0.2666  0.1484 -0.1378
 4647PP      PP14751  10.941   5.860  11.736 -0.3060  0.2553 -0.0629
 4648PP      PP14752  14.656  13.945   1.525 -0.0765  0.2491 -0.0317
 4649PP      PP14753   8.450   3.982  13.310  0.0246  0.3621  0.0374
 4650PP      PP14754  12.079   6.073   4.195 -0.1805 -0.1724 -0.0145
 4651PP      PP14755   6.719  15.700  12.930 -0.1888  0.0484  0.1965
 4652PP      PP14756   4.620   1.448   3.081  0.2694  0.1013 -0.2945
 4653PP      PP14757  12.652   8.333   1.791 -0.0736 -0.0713 -0.1338
 4654PP      PP14758   9.026   2.557   8.800  0.0252 -0.1452  0.0972
 4655PP      PP14759   6.844   9.446   3.008 -0.2642  0.0185  0.0793
 4656PP      PP14760  14.803   3.389   1.410 -0.0694  0.2447 -0.1157
 4657PP      PP14761   2.617  11.976  10.579 -0.3397 -0.0679 -0.0461
 4658PP      PP14762  15.356   9.651   2.855  0.1200  0.0837 -0.0018
 4659PP      PP14763   0.918   0.544   2.696 -0.2229 -0.1497  0.2331
 4660PP      PP14764   8.047  11.109   4.715  0.1644  0.1866  0.1720
 4661PP      PP14765   7.726   1.234  13.048  0.1806  0.0975  0.1434
 4662PP      PP14766   4.201  13.235   0.585 -0.1156  0.0720  0.1514
 4663PP      PP14767   0.760   4.172   0.713  0.0128 -0.1977 -0.0326
 4664PP      PP14768   3.688   6.265  13.273  0.0010  0.1392  0.2291
 4665PP      PP14769   7.707   0.297   2.455  0.1663  0.0330 -0.1656
 4666PP      PP14770  10.830   7.488   0.329  0.0186  0.0976  0.2784
 4667PP      PP14771  14.568  13.999  12.235 -0.1633 -0.0997 -0.3548
 4668PP      PP14772   2.969  10.996   9.230 -0.0362  0.1069 -0.1805
 4669PP      PP14773  13.169   4.547   1.600 -0.0512  0.1430 -0.3601
 4670PP      PP14774   5.597   4.613   1.669  0.1493 -0.1902  0.1104
 4671PP      PP14775   8.654  10.463   3.602  0.0265  0.0622  0.0146
 4672PP      PP14776   2.964  10.275   4.734 -0.0827 -0.2217  0.5713
 4673PP      PP14777  12.950  10.642  10.678  0.1356  0.1348  0.1571
 4674PP      PP14778   4.973  14.847   0.886 -0.0995 -0.2772  0.2034
 4675PP      PP14779   8.323  13.976  10.354  0.3047  0.1696  0.0527
 4676PP      PP14780   8.276   9.205  12.956  0.1969  0.1766 -0.2339
 4677PP      PP14781   5.382  12.047   3.321  0.1066  0.1854 -0.0123
 4678PP      PP14782   2.197   5.312   1.417 -0.5197 -0.1858  0.1933
 4679PP      PP14783  14.037  10.003   1.765 -0.2605 -0.2680 -0.3369
 4680PP      PP14784   3.996   5.052  10.457  0.1529 -0.1338  0.2000
 4681PP      PP14785   2.728  10.745   9.982  0.0804 -0.1201  0.1774
 4682PP      PP14786  13.210  11.826   1.122 -0.0711  0.2395 -0.1666
 4683PP      PP14787   6.653  15.888   1.420  0.1591  0.1836  0.0670
 4684PP      PP14788  11.268   9.667   3.701 -0.3082  0.0186  0.2200
 4685PP      PP14789   9.904  15.255   1.925  0.0315  0.0325  0.2186
 4686PP      PP14790   5.748   9.135   3.740 -0.7233 -0.1710  0.2754
 4687PP      PP14791  15.054   2.432   2.916 -0.1136 -0.0991  0.1296
 4688PP      PP14792  10.037  12.568  12.065  0.0667 -0.1339 -0.0509
 4689PP      PP14793   2.588   7.617  11.953 -0.2028 -0.0474 -0.1968
 4690PP      PP14794   4.061  11.931   3.991  0.2687 -0.2608  0.3351
 4691PP      PP14795  15.322   7.340   3.464 -0.3024  0.0736  0.0192
 4692PP      PP14796   0.876  11.495   2.793  0.0359 -0.2019  0.3123
 4693PP      PP14797   3.131   7.807   3.057 -0.5074 -0.1454 -0.0479
 4694PP      PP14798   1.462  13.474   8.895 -0.0123  0.0697  0.0440
 4695PP      PP14799   2.758   9.625  11.992  0.0048 -0.3285  0.0721
 4696PP      PP14800  12.157  11.141   1.666 -0.1270  0.1855 -0.2803
 4697PP      PP14801   4.934  13.262   1.137 -0.0720  0.1314  0.1215
 4698PP      PP14802  12.714   4.871   3.473 -0.0910  0.0806 -0.2298
 4699PP      PP14803   2.862   4.861   9.338 -0.2942  0.4550 -0.1691
 4700PP      PP14804   2.719  12.488  10.630  0.0163 -0.0441  0.0006
 4701PP      PP14805  14.503   3.174   0.379 -0.2037 -0.1940 -0.0879
 4702PP      PP14806  15.880   1.209  13.150  0.2831  0.1391  0.0077
 4703PP      PP14807  12.074   6.781  10.827  0.1476 -0.2893 -0.2178
 4704PP      PP14808  15.419  10.996  12.792  0.1499  0.1106  0.0294
 4705PP      PP14809   3.476   5.348   0.160 -0.0859 -0.1533 -0.1733
 4706PP      PP14810   9.593   5.699  10.959 -0.0464  0.1428  0.1356
 4707PP      PP14811   2.144   5.569  12.760 -0.1647 -0.1588 -0.0647
 4708PP      PP14812   0.981   0.776  11.590  0.1678  0.2999 -0.1879
 4709PP      PP14813  10.944   0.209   0.259  0.0264  0.1620  0.1159
 4710PP      PP14814   2.746   3.874   1.913  0.0600 -0.0480 -0.0631
 4711PP      PP14815  13.936   6.379  10.299  0.2443  0.2211  0.1602
 4712PP      PP14816   2.148   2.344   2.821 -0.1707  0.4562 -0.1411
 4713PP      PP14817  13.258  14.894   0.493 -0.3375 -0.2213  0.2980
 4714PP      PP14818   9.665  12.364   2.137  0.0345  0.3231 -0.0205
 4715PP      PP14819   6.294   5.888   1.940 -0.0472 -0.0428  0.2559
 4716PP      PP14820  11.940  15.692  12.149  0.2888  0.0469 -0.1187
 4717PP      PP14821   3.350   7.066   0.698  0.4659  0.0478  0.0075
 4718PP      PP14822  15.010   5.797  12.646 -0.4597 -0.0926 -0.0979
 4719PP      PP14823   5.693  15.325   3.538 -0.0102 -0.0205  0.3279
 4720PP      PP14824   7.763   1.228   0.542 -0.0007  0.3440 -0.2804
 4721PP      PP14825  11.655   2.550   2.497 -0.2650  0.2694  0.1221
 4722PP      PP14826   9.180  13.187  11.182 -0.1749  0.0618  0.0147
 4723PP      PP14827   7.885  10.228   2.530 -0.1457 -0.0240  0.0323
 4724PP      PP14828  13.473  13.975  11.316  0.0749  0.1121 -0.2320
 4725PP      PP14829   4.680   4.045   0.575  0.1271  0.1323 -0.0446
 4726PP      PP14830   6.335   3.605  12.856 -0.2048  0.2994  0.1289
 4727PP      PP14831   7.016  12.262   3.857 -0.3527  0.0310  0.0242
 4728PP      PP14832  15.680  11.283   2.675  0.0136 -0.0368 -0.1355
 4729PP      PP14833  12.000  13.283   3.532 -0.1882  0.2532 -0.0333
 4730PP      PP14834   0.895   9.423   4.854 -0.3627 -0.0708  0.4925
 4731PP      PP14835  11.488   2.496  10.003  0.4875  0.3124  0.2848
 4732PP      PP14836   0.516  12.482  12.589  0.0400 -0.1663 -0.0544
 4733PP      PP14837  15.680   6.768   1.763 -0.1887  0.2361  0.0778
 4734PP      PP14838  11.460   6.626   9.110  0.0966 -0.2683  0.1625
 4735PP      PP14839  15.154  14.800  11.208  0.2937  0.1631  0.1192
 4736PP      PP14840  11.461  12.402  11.029 -0.2756 -0.0662  0.1625
 4737PP      PP14841   4.262   3.061   3.146 -0.1087 -0.1047 -0.0180
 4738PP      PP14842  12.690   7.725   1.060 -0.0780  0.0286 -0.0662
 4739PP      PP14843   9.443   1.487   3.358 -0.0439 -0.1419  0.1211
 4740PP      PP14844   1.687  14.616   3.217 -0.1712 -0.3258 -0.1832
 4741PP      PP14845  12.404   2.535   9.659 -0.0239  0.0649  0.2735
 4742PP      PP14846  15.521   1.193   0.419  0.1127 -0.1531 -0.1281
 4743PP      PP14847  15.652  12.161   9.561 -0.0089  0.0869  0.0077
 4744PP      PP14848   3.212   9.556  10.966  0.3197  0.0207 -0.1970
 4745PP      PP14849   2.645   1.470  10.740  0.0458 -0.0003  0.1218
 4746PP      PP14850   6.482   3.160  12.930  0.0265  0.0496 -0.2215
 4747PP      PP14851  10.841  15.597   8.690 -0.2830 -0.0174  0.1218
 4748PP      PP14852   4.567   0.785   3.806 -0.2270  0.2964  0.0354
 4749PP      PP14853   8.349   2.487  13.349 -0.0163 -0.2050  0.3945
 4750PP      PP14854  15.745   6.060   3.886  0.2019 -0.1922 -0.1404
 4751PP      PP14855  12.048   2.965   0.081 -0.0573  0.0732  0.1333
 4752PP      PP14856   9.545   0.370   9.508  0.1037 -0.1315 -0.1325
 4753PP      PP14857   3.046  14.760  13.373  0.1411 -0.2501 -0.0392
 4754PP      PP14858   0.058  13.294   3.586 -0.1562  0.2938  0.1109
 4755PP      PP14859   5.866   6.615   0.330 -0.0165 -0.0590 -0.0236
 4756PP      PP14860  11.048  12.420   9.623  0.2533 -0.1447 -0.2469
 4757PP      PP14861   4.161   1.734   4.191  0.1683 -0.1590 -0.2537
 4758PP      PP14862   4.285   1.797  12.637  0.0656 -0.1357  0.0461
 4759PP      PP14863  14.259  13.392   8.983  0.1074  0.1722 -0.3161
 4760PP      PP14864   5.168   3.956   4.166 -0.2381 -0.0907  0.1158
 4761PP      PP14865  13.148  13.270   0.555 -0.1773  0.1216 -0.1856
 4762PP      PP14866   8.020   3.957   9.403 -0.1976  0.1669  0.0648
 4763PP      PP14867   9.491  13.942   2.721 -0.1328  0.0234  0.2762
 4764PP      PP14868   9.413   5.961  11.478  0.1165 -0.1632  0.0276
 4765PP      PP14869   8.735   9.607   1.728  0.1199  0.1034  0.0120
 4766PP      PP14870   9.519   4.355   2.715 -0.3435 -0.1344  0.0259
 4767PP      PP14871   2.223  11.320   2.794  0.1734 -0.1249  0.2293
 4768PP      PP14872  12.179  15.099   2.797  0.0058  0.0507  0.0348
 4769PP      PP14873   8.810   6.406  12.096 -0.2575 -0.1418  0.1431
 4770PP      PP14874  12.387   8.839  10.344 -0.2049  0.0946  0.5862
 4771PP      PP14875   2.048  12.798  11.441 -0.0489 -0.0804 -0.1417
 4772PP      PP14876  14.370   8.763  10.261 -0.0054  0.2182 -0.0167
 4773PP      PP14877   7.110   0.668   0.245 -0.0032  0.1556 -0.0499
 4774PP      PP14878   1.713   7.645  13.320  0.2735  0.1959  0.2633
 4775PP      PP14879   7.806  13.416  11.994  0.0611  0.1025  0.0979
 4776PP      PP14880   7.219  11.119   1.013  0.0293 -0.0537  0.1544
 4777PP      PP14881  15.073  15.221   3.497 -0.2864  0.0524 -0.2634
 4778PP      PP14882  15.891   3.156   4.279 -0.2554  0.2020  0.2298
 4779PP      PP14883   2.945  14.817  10.806 -0.0434  0.0284  0.0057
 4780PP      PP14884   2.510   6.931   1.472  0.1410  0.0149 -0.0680
 4781PP      PP14885   1.217   0.911   9.350 -0.3865  0.2330  0.0215
 4782PP      PP14886   0.221  15.348   2.894 -0.0256 -0.0916 -0.0083
 4783PP      PP14887   1.414  11.924  12.580  0.0227  0.2925  0.0627
 4784PP      PP14888   0.226  13.179   9.309  0.1855 -0.2937 -0.2340
 4785PP      PP14889   0.860   4.778   0.257  0.1750 -0.0867  0.2169
 4786PP      PP14890  12.090   1.443  10.536 -0.3058  0.0835 -0.1013
 4787PP      PP14891   2.088   7.773  12.076 -0.0947  0.1016 -0.1940
 4788PP      PP14892  14.967   8.018   4.325 -0.0682 -0.0714  0.0271
 4789PP      PP14893   1.272   2.422  11.073  0.4175  0.0638  0.0024
 4790PP      PP14894   6.068   1.223  12.169 -0.4020  0.0077  0.2235
 4791PP      PP14895  15.154   7.129   0.221 -0.3587 -0.2807  0.0750
 4792PP      PP14896   4.298   7.706  13.415 -0.0266  0.0671 -0.0091
 4793PP      PP14897  15.851   6.752  10.583 -0.3395  0.3077  0.3244
 4794PP      PP14898   8.430   0.305  10.938  0.0830 -0.1945 -0.0094
 4795PP      PP14899   1.790  14.231   1.179 -0.2900  0.1336  0.1616
 4796PP      PP14900   7.507  13.042  11.737  0.1420  0.0127 -0.1323
 4797PP      PP14901   0.096  10.856   1.342  0.1114 -0.2646 -0.1502
 4798PP      PP14902   8.406   5.150  12.026 -0.0224 -0.0092 -0.2034
 4799PP      PP14903   3.883   7.504   4.942 -0.1553  0.1192  0.0480
 4800PP      PP14904   9.226  14.723  12.517  0.2226 -0.0256  0.1708
 4801PP      PP14905   0.344  11.368   4.120 -0.0397  0.2117 -0.1930
 4802PP      PP14906   6.053   0.730  10.144 -0.0290 -0.1986 -0.1165
 4803PP      PP14907  13.617   8.106   1.954 -0.0579  0.1930 -0.0544
 4804PP      PP14908  13.400   2.144  12.842 -0.1377 -0.0701 -0.0662
 4805PP      PP14909  11.199  12.771   2.948  0.0208 -0.0695 -0.2264
 4806PP      PP14910   8.197   0.105   0.855 -0.2393  0.3607  0.1678
 4807PP      PP14911   9.223   7.211  12.487 -0.0758  0.1124 -0.3529
 4808PP      PP14912   0.809   7.470  11.834 -0.0216 -0.2215  0.0574
 4809PP      PP14913   4.835   9.105   0.906 -0.0968 -0.0283 -0.1735
 4810PP      PP14914  14.934   5.061   4.075  0.1704  0.2384 -0.0849
 4811PP      PP14915  15.834   6.402   4.227 -0.4525 -0.0949  0.3117
 4812PP      PP14916  11.290   8.806  13.258 -0.2857 -0.3258 -0.0007
 4813PP      PP14917  12.922   9.467   3.231  0.0144  0.0321  0.1435
 4814PP      PP14918   9.999   8.053  13.242 -0.1234  0.2180 -0.3715
 4815PP      PP14919   1.452   9.414  11.822  0.0951  0.0039  0.2156
 4816PP      PP14920   7.986  13.983   3.529  0.3088 -0.0660  0.2587
 4817PP      PP14921   6.443  15.276  11.202 -0.1493  0.0765 -0.2581
 4818PP      PP14922   4.868   0.239   9.464 -0.0639  0.0005  0.1120
 4819PP      PP14923  12.817   7.180   1.930 -0.0418 -0.0859  0.1393
 4820PP      PP14924  12.587   8.748   0.267 -0.3170  0.1388  0.2842
 4821PP      PP14925   5.080   0.230  11.923  0.0863 -0.1016  0.0153
 4822PP      PP14926  15.592   5.137   5.142 -0.0783 -0.0103  0.2078
 4823PP      PP14927  12.573  15.325   3.017 -0.2555 -0.0719  0.1626
 4824PP      PP14928  14.949   6.904  10.336  0.0592  0.0395  0.0033
 4825PP      PP14929  10.021  10.453   2.381 -0.0706 -0.3451 -0.2871
 4826PP      PP14930   1.407  13.910   8.366 -0.1140  0.0882  0.1969
 4827PP      PP14931  15.797   8.030   3.352 -0.1145  0.4836  0.0898
 4828PP      PP14932  11.773   2.898   1.155  0.3559  0.2877 -0.0498
 4829PP      PP14933   9.306  12.309  12.449 -0.1279 -0.2877 -0.0613
 4830PP      PP14934  12.898   3.806   9.386  0.0376 -0.4223 -0.0864
 4831PP      PP14935   5.827  13.861   0.472 -0.0056  0.1192  0.3587
 4832PP      PP14936   4.907   7.223   5.227  0.0729  0.0570 -0.3225
 4833PP      PP14937   2.414  13.031   4.185 -0.0730 -0.2573 -0.0260
 4834PP      PP14938   9.344  11.134   3.337  0.0861  0.3449  0.2951
 4835PP      PP14939   7.848  10.522   9.188 -0.0578 -0.0289  0.0997
 4836PP      PP14940   8.092   1.839   9.924 -0.1133 -0.2148 -0.0396
 4837PP      PP14941   0.870   7.577   3.123  0.0955  0.0179  0.2421
 4838PP      PP14942   0.959  14.911  12.909 -0.0816 -0.0653  0.0193
 4839PP      PP14943   1.392   8.326   5.338  0.0471  0.0767  0.0635
 4840PP      PP14944  15.235   0.921   3.957 -0.0496  0.3243  0.0074
 4841PP      PP14945   7.842   7.924   2.931  0.0476 -0.4666 -0.1747
 4842PP      PP14946  15.541   9.103  10.667  0.0257  0.2215 -0.2896
 4843PP      PP14947  13.161  15.645   8.877 -0.3311 -0.0942 -0.3087
 4844PP      PP14948   5.599   6.596   4.133 -0.2031 -0.2444 -0.0682
 4845PP      PP14949   5.709   4.799  10.472 -0.0674 -0.3532  0.1366
 4846PP      PP14950  10.968   0.259   1.673  0.3476  0.4530  0.1844
 4847PP      PP14951   5.382   2.375  10.002 -0.1983  0.0739  0.0090
 4848PP      PP14952  14.651  11.614   1.456 -0.0198 -0.2642 -0.2187
 4849PP      PP14953   9.959   3.421   9.227 -0.4120 -0.3529  0.2444
 4850PP      PP14954   4.644   0.802   1.902  0.2962 -0.0454 -0.1618
 4851PP      PP14955   8.571   3.550  12.956  0.0379 -0.0004  0.2589
 4852PP      PP14956   0.163   6.043  12.179  0.2875 -0.1693 -0.2181
 4853PP      PP14957   9.886  15.148  10.168  0.1709  0.1381 -0.1098
 4854PP      PP14958  11.234   6.614   2.629 -0.1753 -0.0297 -0.1752
 4855PP      PP14959  15.422   4.152   7.999 -0.2532  0.3412  0.0900
 4856PP      PP14960   6.960   1.868   1.432  0.0356  0.1671  0.2560
 4857PP      PP14961  11.736  15.708   1.403 -0.1518 -0.0168 -0.0705
 4858PP      PP14962   6.060  10.381   2.602 -0.3489 -0.2543  0.1010
 4859PP      PP14963   6.759   3.095  10.098  0.1743  0.1159  0.1670
 4860PP      PP14964   1.441  12.383  11.044  0.3977  0.1001 -0.1411
 4861PP      PP14965   1.625   9.282   3.177  0.1636 -0.0107  0.1575
 4862PP      PP14966   9.058  15.503   9.366  0.1718  0.2393 -0.0864
 4863PP      PP14967  13.941  13.306   2.008  0.0296 -0.0167  0.3855
 4864PP      PP14968   0.562  13.831   2.569 -0.0220 -0.0212 -0.1676
 4865PP      PP14969   1.624   9.328  13.249 -0.1908 -0.2242  0.0528
 4866PP      PP14970   7.649   9.589  13.329  0.0498 -0.0450 -0.0413
 4867PP      PP14971   4.909  12.251   9.851 -0.2439 -0.0566 -0.0273
 4868PP      PP14972   1.511   6.854   1.075 -0.1555 -0.0679  0.1450
 4869PP      PP14973   1.321   4.813  10.076  0.0570 -0.0019 -0.0001
 4870PP      PP14974   6.168   7.072   1.201 -0.1509  0.1681 -0.2921
 4871PP      PP14975  14.231  14.862  12.445  0.3741  0.0501 -0.1298
 4872PP      PP14976   4.484   6.591   3.153  0.2050  0.1504  0.0277
 4873PP      PP14977  13.174  14.606   4.043 -0.2921 -0.2338 -0.1320
 4874PP      PP14978   2.225   0.742  12.487  0.1510  0.1639  0.2742
 4875PP      PP14979   1.449   8.352  12.420 -0.0757 -0.0991 -0.3059
 4876PP      PP14980  15.194  13.865   9.467  0.0390  0.0149  0.0829
 4877PP      PP14981   7.171  13.107   8.540  0.2998 -0.1781 -0.1190
 4878PP      PP14982  10.487  12.285  10.752  0.1455 -0.4059  0.0438
 4879PP      PP14983  13.605   2.973  10.022 -0.1197 -0.0187  0.0021
 4880PP      PP14984   9.420   7.774  10.509  0.0350  0.3810 -0.4021
 4881PP      PP14985  15.886   2.021  10.467 -0.2855  0.0493 -0.1914
 4882PP      PP14986  13.066   5.991  12.014 -0.0713 -0.3325  0.3858
 4883PP      PP14987   2.806   4.060  12.274  0.4597 -0.1560  0.0368
 4884PP      PP14988  13.986   7.803   1.539  0.0524 -0.1453 -0.0638
 4885PP      PP14989  13.441   3.772   0.632  0.2659 -0.0240  0.2686
 4886PP      PP14990   0.771   4.616  12.728  0.1526 -0.0883 -0.1189
 4887PP      PP14991   8.428   4.162   3.392 -0.1955  0.1078  0.1522
 4888PP      PP14992   2.622   7.569  11.354 -0.1011  0.2698  0.1214
 4889PP      PP14993   6.974   5.819   1.133 -0.3430  0.0980  0.0900
 4890PP      PP14994   7.838   1.666   9.572 -0.3146  0.0373 -0.1726
 4891PP      PP14995  10.117  10.866   0.413  0.1251  0.2162  0.1630
 4892PP      PP14996   5.372   0.957  13.149  0.0729 -0.3080  0.0430
 4893PP      PP14997   7.322   8.993   0.632  0.1437  0.1701 -0.3690
 4894PP      PP14998   0.226  11.639   0.664 -0.1357 -0.0884  0.0889
 4895PP      PP14999  14.298   4.763  10.339 -0.2609 -0.3297  0.2404
 4896PP      PP15000   1.822   5.345   3.508 -0.1863 -0.1395  0.2054
 4897PP      PP15001  11.317   1.560   9.232 -0.1238 -0.0721  0.0828
 4898PP      PP15002   8.160  13.607   9.910  0.0760 -0.2308 -0.1458
 4899PP      PP15003   0.124   9.354  10.906  0.1436  0.0296  0.2261
 4900PP      PP15004  10.778  12.721   1.183  0.1005 -0.0532  0.2507
 4901PP      PP15005   9.535  15.441   0.130 -0.0370 -0.0555 -0.0403
 4902PP      PP15006   6.879   5.705  12.319  0.1131  0.0184  0.0322
 4903PP      PP15007  10.719   0.357  11.181 -0.1544  0.1531  0.2606
 4904PP      PP15008   9.229   0.849   8.877 -0.0418  0.1418  0.0411
 4905PP      PP15009   1.194   4.199   2.161 -0.0620  0.1477  0.2373
 4906PP      PP15010   0.743   8.283   4.086  0.4642 -0.0456  0.2026
 4907PP      PP15011   2.534   9.751   2.846 -0.0604  0.3316  0.1297
 4908PP      PP15012   2.457   8.018   1.873 -0.2257 -0.0659  0.1151
 4909PP      PP15013  14.528  13.056   2.674  0.2752  0.1367 -0.2436
 4910PP      PP15014   9.354   6.166  13.000  0.1271 -0.2830 -0.0958
 4911PP      PP15015  13.519   4.150  10.535  0.2924  0.0988  0.0415
 4912PP      PP15016  15.820   7.589  10.280 -0.1361  0.2244  0.0717
 4913PP      PP15017  12.744   0.621  10.296  0.2154  0.1383 -0.0776
 4914PP      PP15018   3.234  13.961   4.390 -0.1062 -0.1118  0.5134
 4915PP      PP15019   2.239   2.969   3.348 -0.3274  0.1722 -0.2533
 4916PP      PP15020   6.768   1.590   2.710  0.0563 -0.1412  0.1391
 4917PP      PP15021  11.519   0.969   1.848 -0.0279 -0.0669 -0.2134
 4918PP      PP15022  14.311   5.271   0.794  0.4409 -0.3005  0.0125
 4919PP      PP15023  13.144   4.621  12.574  0.0347  0.2116  0.0877
 4920PP      PP15024   2.384  11.328  12.787 -0.0335  0.0676 -0.0699
 4921PP      PP15025   4.070   6.940   2.249 -0.0877  0.0328  0.1134
 4922PP      PP15026   8.293  11.039   3.268 -0.1843  0.0046  0.0553
 4923PP      PP15027   4.278   9.425   0.529  0.3882  0.4162  0.1575
 4924PP      PP15028  14.942   1.305   3.813 -0.1257 -0.2488  0.1901
 4925PP      PP15029   8.883   7.031  10.490 -0.0572 -0.3298 -0.3239
 4926PP      PP15030  12.289  14.919   6.417  0.2516  0.1309 -0.1210
 4927PP      PP15031   3.008   0.755   8.927  0.2749  0.1823 -0.0528
 4928PP      PP15032   7.635  14.543   1.700 -0.0703  0.0746  0.1259
 4929PP      PP15033   2.091  15.722   0.414  0.1757 -0.4540  0.0204
 4930PP      PP15034   8.923   1.881   2.470  0.0129  0.2942 -0.0953
 4931PP      PP15035  14.444  11.312   1.821 -0.1310 -0.0754 -0.0910
 4932PP      PP15036   2.410   3.271   1.788  0.1756  0.1948 -0.3496
 4933PP      PP15037  14.710  15.338   9.171 -0.0589  0.3066 -0.1223
 4934PP      PP15038  14.073   4.699   9.471 -0.0225  0.2746 -0.0247
 4935PP      PP15039  13.283   7.372  12.148 -0.2276  0.2684 -0.0213
 4936PP      PP15040   9.682   3.217   0.633 -0.0922  0.2349 -0.1313
 4937PP      PP15041  13.981   9.399   1.919 -0.0373 -0.0394 -0.0493
 4938PP      PP15042   3.131   0.405   4.219 -0.0175  0.2333 -0.0903
 4939PP      PP15043   0.194   1.186   4.182  0.0553  0.0112 -0.0234
 4940PP      PP15044  11.966   4.600  11.647  0.0942  0.1081  0.0634
 4941PP      PP15045   4.459  15.303   3.102 -0.0436 -0.0810 -0.2051
 4942PP      PP15046  11.849   2.480  13.436  0.0119  0.0296  0.0540
 4943PP      PP15047   6.530   8.407  10.444 -0.2100 -0.1304 -0.1964
 4944PP      PP15048   2.622   2.776   8.845 -0.0565  0.1941  0.1352
 4945PP      PP15049   1.014   2.332   0.318  0.2710  0.0488 -0.0974
 4946PP      PP15050  11.041  14.501   2.701 -0.0914  0.3739  0.0599
 4947PP      PP15051   0.668  14.350   9.662 -0.0084  0.0196  0.0992
 4948PP      PP15052  12.890   0.450   0.266 -0.0107 -0.0199  0.2088
 4949PP      PP15053  10.178  10.199   4.208 -0.0248  0.0915 -0.0408
 4950PP      PP15054   7.478   0.448  11.962  0.0074 -0.1256  0.1401
 4951PP      PP15055   3.160   5.852   1.589  0.2006 -0.0017  0.1569
 4952PP      PP15056  13.628   9.200  10.345  0.3022 -0.2015  0.0280
 4953PP      PP15057   5.558   5.093   4.545  0.1399  0.2047  0.1634
 4954PP      PP15058   1.783   0.925   9.509  0.2433  0.0014 -0.0179
 4955PP      PP15059   0.654   4.810   1.369 -0.0881  0.0265  0.2588
 4956PP      PP15060  12.581   0.671  12.889  0.0185 -0.2995 -0.0362
 4957PP      PP15061   0.110   8.083  10.309 -0.0751 -0.2343 -0.0519
 4958PP      PP15062   8.008   2.180   3.980 -0.0553  0.0338  0.1332
 4959PP      PP15063  14.470  14.470  11.783  0.0674  0.2318 -0.0968
 4960PP      PP15064   1.702   7.910  12.912 -0.1819 -0.2007 -0.1737
 4961PP      PP15065  11.148  10.846   1.679 -0.0243 -0.1622 -0.1145
 4962PP      PP15066   9.933  11.827  10.497  0.0641  0.1687 -0.0321
 4963PP      PP15067   8.152  14.299   9.386  0.1460  0.0343 -0.1709
 4964PP      PP15068  10.503   2.215  10.478  0.0220 -0.1914 -0.0493
 4965PP      PP15069   9.465   1.315  12.346 -0.2916 -0.1613  0.1583
 4966PP      PP15070   6.269   3.725   0.524  0.1044  0.3789  0.1437
 4967PP      PP15071   1.609  10.109   0.722  0.0658  0.0737 -0.2120
 4968PP      PP15072  10.005  14.216   1.595 -0.1453  0.2220  0.0750
 4969PP      PP15073  10.545  14.782  12.973  0.0526  0.0766 -0.0931
 4970PP      PP15074  13.379  11.591  12.337 -0.0246  0.0553  0.0253
 4971PP      PP15075   8.846   0.525  12.060 -0.1324 -0.1630 -0.1981
 4972PP      PP15076  13.034   0.170   9.142  0.2896 -0.0864  0.1672
 4973PP      PP15077   3.809  14.976   0.248 -0.0274 -0.0883 -0.0578
 4974PP      PP15078   5.664  14.574  12.900  0.1317 -0.2053 -0.1620
 4975PP      PP15079  12.236  10.155   9.365 -0.2780 -0.2793 -0.0905
 4976PP      PP15080  11.503   1.901   9.880 -0.2035 -0.2879 -0.1729
 4977PP      PP15081   0.963   9.873   1.319  0.0736  0.1735  0.2770
 4978PP      PP15082  15.068   8.699   3.506 -0.2166  0.0451 -0.3892
 4979PP      PP15083  15.104   2.346  12.131  0.2702 -0.3476  0.0568
 4980PP      PP15084   1.024   3.488   4.279 -0.0349 -0.0652  0.3218
 4981PP      PP15085   8.459  12.958   2.916  0.0916  0.4709  0.0619
 4982PP      PP15086   4.340  11.350   2.791 -0.0645 -0.0257 -0.1392
 4983PP      PP15087  15.743   5.349   1.153  0.1286  0.2013 -0.1111
 4984PP      PP15088   1.318  10.105   1.683 -0.0221  0.2597 -0.1399
 4985PP      PP15089  15.141   3.399   3.842  0.1004  0.2892  0.1464
 4986PP      PP15090  11.907   3.751  12.267 -0.1558  0.2216 -0.1384
 4987PP      PP15091   1.952   5.934   2.204 -0.0540 -0.4051 -0.1206
 4988PP      PP15092   2.366   3.704  11.627 -0.0325  0.0102 -0.0418
 4989PP      PP15093  15.659   4.234  12.225  0.0369 -0.1345  0.1458
 4990PP      PP15094   6.603   3.306   9.656  0.0395  0.3400  0.2590
 4991PP      PP15095   7.816  15.417   3.653  0.0385  0.1493  0.0173
 4992PP      PP15096  14.628   6.170  13.072 -0.1546 -0.1949  0.1044
 4993PP      PP15097   5.536   4.086   9.998 -0.1617 -0.0039 -0.0566
 4994PP      PP15098  10.822   6.825  12.289 -0.4407  0.2249  0.1440
 4995PP      PP15099   6.948  15.335  13.100 -0.0270 -0.0763 -0.1873
 4996PP      PP15100   3.670   7.058   1.680 -0.0121 -0.1575  0.2268
 4997PP      PP15101   8.556   0.654   0.164 -0.0594  0.2121 -0.2558
 4998PP      PP15102   2.663   4.891  10.553 -0.1147  0.0442  0.0103
 4999PP      PP15103   8.861   2.823  13.373 -0.0343 -0.2324  0.4304
 5000PP      PP15104   9.710  11.390  12.625  0.1473  0.0627  0.3157
 5001PP      PP15105  10.769   5.165  10.676  0.0619  0.0716 -0.2423
 5002PP      PP15106   4.310   6.988   0.304 -0.2935  0.1319  0.1168
 5003PP      PP15107   3.744  11.184   0.893  0.0697 -0.4381 -0.2185
 5004PP      PP15108  15.155   9.489   0.377 -0.3698  0.3384  0.1576
 5005PP      PP15109  11.652   4.268   9.839 -0.2234 -0.0958 -0.3432
 5006PP      PP15110  12.625  13.214   1.238  0.2071  0.0141  0.2870
 5007PP      PP15111   4.917   3.165  12.682 -0.0313  0.7469  0.1466
 5008PP      PP15112   1.158   1.893   3.409 -0.0707 -0.1625  0.1109
 5009PP      PP15113   0.487   5.638   0.470  0.0208  0.1942 -0.1946
 5010PP      PP15114   5.264   7.733  11.382  0.2345 -0.2681  0.3572
 5011PP      PP15115   7.598  10.192   0.440  0.1138 -0.0292  0.1936
 5012PP      PP15116   2.194  10.818   2.766 -0.3756  0.0455 -0.0964
 5013PP      PP15117   3.881   6.737   4.440  0.0415 -0.0237  0.0391
 5014PP      PP15118  15.141  10.016   2.567 -0.1934 -0.0212 -0.2930
 5015PP      PP15119   0.711  14.870   9.957  0.0721  0.0130  0.0985
 5016PP      PP15120  12.544   6.452   3.029  0.0896  0.0711 -0.1068
 5017PP      PP15121  12.540   0.428  11.393 -0.1735  0.3615  0.2757
 5018PP      PP15122   3.031  12.413   9.218  0.0914 -0.3131 -0.2196
 5019PP      PP15123   3.739  11.425   0.247  0.0520 -0.0364  0.0719
 5020PP      PP15124   6.949   6.481   1.410 -0.0232  0.1394  0.1589
 5021PP      PP15125  10.914   4.541   1.100 -0.0896  0.1538  0.2842
 5022PP      PP15126   4.955   4.688   1.735 -0.4343  0.0315 -0.1008
 5023PP      PP15127   9.275   6.465  11.342  0.2682  0.1365 -0.1082
 5024PP      PP15128   7.479  13.321  10.367 -0.1233  0.1284 -0.0265
 5025PP      PP15129  10.554   2.707   1.544  0.4361  0.0357  0.0765
 5026PP      PP15130   4.705   4.656  10.852  0.1450 -0.2018  0.0151
 5027PP      PP15131   2.478  12.338   3.469  0.0887 -0.0668 -0.0883
 5028PP      PP15132   2.229  10.072  10.830 -0.0006 -0.2029  0.0414
 5029PP      PP15133   1.445   9.947   9.214 -0.2096 -0.1812 -0.1860
 5030PP      PP15134   1.815  12.817   1.565 -0.0655 -0.0631 -0.2990
 5031PP      PP15135  10.696  13.663   1.330 -0.1894  0.6028 -0.0690
 5032PP      PP15136   2.930   6.533   2.921 -0.1874 -0.1265 -0.0165
 5033PP      PP15137   4.381   1.004  13.183 -0.1041 -0.1357  0.2442
 5034PP      PP15138   9.455   2.298   9.545  0.1888 -0.0690  0.0312
 5035PP      PP15139   0.463  12.439   1.187 -0.0250 -0.1682  0.0460
 5036PP      PP15140  11.230   3.809   3.647 -0.0326 -0.1384 -0.1639
 5037PP      PP15141   2.711  13.789   9.935 -0.0004  0.2445 -0.2168
 5038PP      PP15142   8.467   7.740   1.336 -0.0138 -0.1438 -0.0970
 5039PP      PP15143   8.571   4.493   8.461  0.2243  0.2631  0.0618
 5040PP      PP15144  14.087   5.778   3.573 -0.2341  0.0701 -0.0250
 5041PP      PP15145   7.303  12.362   3.436 -0.1168  0.0910 -0.0365
 5042PP      PP15146  13.886   6.130   9.266  0.1399  0.0237 -0.3150
 5043PP      PP15147   5.003  10.162   1.356 -0.4685  0.0288 -0.2458
 5044PP      PP15148  11.279   6.453  10.258 -0.2375 -0.2634  0.0242
 5045PP      PP15149   4.335   2.343   0.201 -0.2653 -0.2316  0.4208
 5046PP      PP15150  10.667   1.458   0.710  0.2503  0.1285 -0.0275
 5047PP      PP15151   2.825   3.792  11.143 -0.1383  0.1670  0.0088
 5048PP      PP15152  15.061   6.059   2.576 -0.0426 -0.3304 -0.1466
 5049PP      PP15153   6.645  14.396   3.458  0.1211  0.0548 -0.2489
 5050PP      PP15154   5.248  11.857   4.379 -0.0690  0.1521  0.0559
 5051PP      PP15155   8.818  13.059   3.245 -0.2812  0.1554  0.0289
 5052PP      PP15156   9.707  12.246  11.213  0.0161  0.1994 -0.0422
 5053PP      PP15157   7.433   1.685  12.600  0.0555  0.1602  0.0927
 5054PP      PP15158  14.929   5.696  10.136  0.2213 -0.1847  0.1791
 5055PP      PP15159   7.202   1.463  11.991 -0.1681 -0.1903  0.1965
 5056PP      PP15160   7.301   6.331  11.157 -0.3505  0.0658  0.1436
 5057PP      PP15161   3.444  14.215   0.175  0.0563 -0.0074  0.0259
 5058PP      PP15162   6.311   8.168   3.269 -0.3717 -0.3387 -0.1414
 5059PP      PP15163   2.068   2.497   3.351 -0.1535  0.1289  0.0186
 5060PP      PP15164   6.984  14.338   0.617 -0.0869  0.0729 -0.0412
 5061PP      PP15165   7.750   7.301   9.578 -0.1859  0.1341  0.2327
 5062PP      PP15166   6.211   7.766   4.531  0.1225 -0.1589 -0.1186
 5063PP      PP15167   6.343  10.505  10.315  0.0371  0.0274  0.1780
 5064PP      PP15168  14.924   5.578  10.608  0.0550  0.2950 -0.0630
 5065PP      PP15169  11.657  15.453   9.182 -0.2378  0.1643  0.0089
 5066PP      PP15170  15.598   5.610   2.597 -0.1597  0.2277 -0.0807
 5067PP      PP15171   6.175   1.538   0.772 -0.0614 -0.0528 -0.0777
 5068PP      PP15172  15.595   3.552   3.973  0.1819 -0.2077  0.1229
 5069PP      PP15173  14.961   4.933   9.773  0.1169 -0.0004 -0.0738
 5070PP      PP15174   8.643  12.841  13.324 -0.1076  0.2262  0.1499
 5071PP      PP15175  12.648   5.881  10.307  0.2605  0.0304 -0.2115
 5072PP      PP15176   0.978   0.212  12.927  0.2568 -0.0320 -0.2520
 5073PP      PP15177   8.868   3.008  12.833 -0.2199  0.4605 -0.2518
 5074PP      PP15178   5.322  13.491   3.086 -0.3722  0.0038  0.0760
 5075PP      PP15179   7.699  14.834   2.692 -0.0402 -0.0806  0.0899
 5076PP      PP15180   5.369   0.144   0.210 -0.1386 -0.1888 -0.1320
 5077PP      PP15181  12.645  15.473   1.989  0.0411  0.1208 -0.1317
 5078PP      PP15182  10.482  14.085   8.875 -0.0108  0.2215 -0.0198
 5079PP      PP15183  15.448   2.199  10.299 -0.1162  0.1888  0.2369
 5080PP      PP15184   0.923   4.515  13.217 -0.1391  0.1334  0.2678
 5081PP      PP15185  12.918   2.191  10.502 -0.2026 -0.3294 -0.1314
 5082PP      PP15186   2.738   5.359   3.769 -0.0174  0.2093  0.0110
 5083PP      PP15187  12.987   0.564   0.804  0.1060  0.0804 -0.0937
 5084PP      PP15188   1.730   9.417   2.669  0.1190 -0.1317  0.0437
 5085PP      PP15189   9.491  11.994  10.826 -0.1344  0.1482 -0.2154
 5086PP      PP15190  15.642   2.036   2.154  0.1212  0.1434  0.3627
 5087PP      PP15191   4.189  13.861  12.463  0.1569  0.0308  0.1676
 5088PP      PP15192   9.596  12.443   1.554 -0.1154  0.0349  0.1489
 5089PP      PP15193  14.386   6.339  10.546 -0.0931  0.1807  0.0062
 5090PP      PP15194   4.251   9.605  10.597  0.2212  0.1693  0.2193
 5091PP      PP15195   3.098   9.103   4.348  0.2205 -0.1760  0.0317
 5092PP      PP15196   9.820  11.464  11.586  0.3620  0.2195  0.1080
 5093PP      PP15197   2.479   5.807  11.354  0.0559 -0.0747  0.0944
 5094PP      PP15198  10.983  10.013   2.755  0.3568  0.4687  0.0369
 5095PP      PP15199  14.189  12.446   1.735 -0.0425  0.0601  0.2386
 5096PP      PP15200   9.919  13.091   3.720 -0.0740 -0.1514 -0.1499
 5097PP      PP15201   8.544  14.383   1.818 -0.1186 -0.1385  0.1134
 5098PP      PP15202   6.496  14.954   4.760  0.1106 -0.1246  0.0527
 5099PP      PP15203   2.293   0.554   3.987  0.3507  0.1926  0.1784
 5100PP      PP15204   6.829   7.768  12.472  0.0481  0.1670 -0.1598
 5101PP      PP15205   3.232   3.971   0.678  0.1423  0.0133  0.1571
 5102PP      PP15206   4.605   6.815   5.059 -0.1221 -0.0559  0.0263
 5103PP      PP15207   5.943   4.170   8.927  0.0930 -0.2282  0.2115
 5104PP      PP15208   5.258   8.139   0.906  0.1480  0.3911 -0.0010
 5105PP      PP15209   8.308   3.979  11.462 -0.0908  0.0066  0.2915
 5106PP      PP15210   5.191  14.445   4.331 -0.2259  0.2147 -0.0210
 5107PP      PP15211   5.526   9.579   1.919  0.0634  0.1994 -0.4268
 5108PP      PP15212   6.738   0.394   3.218  0.1201  0.1544  0.3066
 5109PP      PP15213   2.798  12.095   3.695 -0.1034  0.0020  0.1017
 5110PP      PP15214   1.658   6.969   4.820  0.0169 -0.2973 -0.0348
 5111PP      PP15215  15.354   0.397  13.021  0.2375 -0.1277 -0.1736
 5112PP      PP15216  14.699  12.663  11.669  0.1807 -0.4956  0.0708
 5113PP      PP15217  10.849  11.432   8.180 -0.1600 -0.0605  0.1926
 5114PP      PP15218   4.258  11.594   9.963 -0.2560 -0.0072  0.0179
 5115PP      PP15219   3.195   3.521   2.031  0.0568  0.1503 -0.1356
 5116PP      PP15220   5.589  14.846  10.160 -0.0893 -0.2297 -0.0963
 5117PP      PP15221   7.983   8.171   1.056 -0.1831 -0.1759 -0.0404
 5118PP      PP15222   1.158  11.055   9.569  0.4470  0.1070  0.0079
 5119PP      PP15223   6.331   4.104  12.657  0.2900 -0.0185 -0.0976
 5120PP      PP15224   6.285  11.159  11.767  0.1371 -0.2751  0.0141
 5121PP      PP15225   2.304  15.524   3.259 -0.2052 -0.0617 -0.1489
 5122PP      PP15226   7.674  15.759   3.354  0.0736 -0.0563 -0.2775
 5123PP      PP15227   8.872   9.975  10.016 -0.1197  0.0319 -0.1708
 5124PP      PP15228   4.105   0.865   3.916  0.2696 -0.2146  0.1234
 5125PP      PP15229   5.961  15.304  13.412 -0.2765 -0.1220 -0.1176
 5126PP      PP15230   2.570  13.886  13.200 -0.1101 -0.0901  0.0230
 5127PP      PP15231  11.596   9.692   9.269 -0.1006 -0.5083 -0.1231
 5128PP      PP15232   6.591   2.991   0.708  0.1148  0.0982 -0.0258
 5129PP      PP15233  14.742   0.769   4.123 -0.0298 -0.3309  0.0799
 5130PP      PP15234   3.102   8.127   3.960 -0.0538 -0.0136  0.3309
 5131PP      PP15235   0.886   9.243   1.888 -0.0518 -0.2288  0.3684
 5132PP      PP15236   9.503  11.502  10.619  0.0963 -0.0950 -0.0036
 5133PP      PP15237  11.312   7.108  12.328 -0.3268  0.4771  0.1236
 5134PP      PP15238   8.236  14.620   4.041  0.2397 -0.2903  0.2603
 5135PP      PP15239   7.760   1.361  12.513 -0.0282  0.0070  0.2478
 5136PP      PP15240  13.384  13.162  13.313 -0.0207  0.2778 -0.2108
 5137PP      PP15241   7.885  12.800   2.356  0.0169 -0.1416  0.1129
 5138PP      PP15242   6.090  13.839   0.908  0.1968  0.2089  0.0416
 5139PP      PP15243  10.597   9.981   0.650  0.0070  0.2871 -0.2000
 5140PP      PP15244  14.028   2.510   3.388  0.0435 -0.0806 -0.1990
 5141PP      PP15245   3.543  11.682  11.266 -0.0343 -0.0112 -0.2004
 5142PP      PP15246  10.129   2.474   3.430 -0.1546  0.0401 -0.1549
 5143PP      PP15247   2.277   3.686  12.968 -0.4232 -0.2660 -0.0061
 5144PP      PP15248   4.013   6.114   0.115 -0.5306 -0.1124  0.1513
 5145PP      PP15249   9.739  12.150   2.599  0.0508  0.1939  0.3469
 5146PP      PP15250   5.263  11.198   4.820  0.0979 -0.0608  0.2492
 5147PP      PP15251  11.614   4.740   4.870  0.1315 -0.2519  0.0206
 5148PP      PP15252  12.245  10.957   9.861  0.1497 -0.1854 -0.2380
 5149PP      PP15253   6.642   2.611   1.891 -0.4277  0.0524  0.1677
 5150PP      PP15254   7.197   3.424   0.769  0.2841 -0.0251 -0.0959
 5151PP      PP15255   9.974   9.657  12.917 -0.1813  0.4624  0.0540
 5152PP      PP15256  12.171   3.497   9.463  0.0984 -0.1643  0.0040
 5153PP      PP15257   6.227   5.577   3.697  0.2572 -0.1688 -0.0754
 5154PP      PP15258   8.369  13.491   3.027  0.0955 -0.3145 -0.0467
 5155PP      PP15259  11.894   8.438   3.957  0.1094  0.2674  0.1491
 5156PP      PP15260   3.033   9.078   2.899  0.1974  0.1077 -0.1760
 5157PP      PP15261   2.270  10.667   9.907 -0.0581 -0.1033 -0.0817
 5158PP      PP15262  10.583   4.686   3.404 -0.1186  0.0456 -0.2267
 5159PP      PP15263  12.987   2.253   2.609 -0.0286 -0.0829  0.2599
 5160PP      PP15264  14.964   3.775   1.917 -0.1956 -0.0866 -0.0303
 5161PP      PP15265   4.981   9.101  10.085  0.1565  0.0373  0.1426
 5162PP      PP15266  12.147  13.776   1.820 -0.0293  0.1860  0.0652
 5163PP      PP15267   6.061  14.178  12.870  0.0875 -0.1717 -0.0484
 5164PP      PP15268   5.373   5.802   9.624 -0.1017  0.1533  0.0877
 5165PP      PP15269   1.426   2.667  10.475 -0.2693  0.1285 -0.2469
 5166PP      PP15270   8.064   1.397   8.742  0.0997 -0.2463 -0.1493
 5167PP      PP15271   4.791   2.913  11.372  0.2145 -0.1577 -0.2436
 5168PP      PP15272   7.567  11.345   3.880  0.0312  0.1063  0.1679
 5169PP      PP15273   9.202  13.898   3.104 -0.0788 -0.1022  0.1525
 5170PP      PP15274   7.203  15.231  10.410  0.0060  0.4233 -0.3087
 5171PP      PP15275   4.000   3.093   2.760 -0.3558  0.0927  0.3299
 5172PP      PP15276   3.980   7.475  13.007  0.0319  0.2657  0.2569
 5173PP      PP15277   9.782  14.130  10.443  0.3901  0.0416 -0.0666
 5174PP      PP15278  12.562   0.655  10.775 -0.0479 -0.0109  0.1540
 5175PP      PP15279   7.725  11.251  11.598 -0.1166  0.1381  0.0539
 5176PP      PP15280  10.144   2.274   2.953 -0.3017 -0.3841  0.0232
 5177PP      PP15281   8.345   4.413   9.569 -0.1551 -0.2904 -0.1125
 5178PP      PP15282   0.732  11.722  10.483 -0.1068 -0.3538 -0.1857
 5179PP      PP15283  11.625   4.221  12.397  0.1060  0.1610 -0.1355
 5180PP      PP15284   1.205   5.896  10.774  0.3490 -0.2838  0.3012
 5181PP      PP15285   3.167   5.023  10.704  0.1280 -0.4919  0.3837
 5182PP      PP15286   4.944  10.938   3.549  0.0536  0.0210 -0.1224
 5183PP      PP15287  12.076   2.840   0.753  0.1828  0.1982 -0.0115
 5184PP      PP15288   7.850   4.591   9.704  0.3552 -0.0894  0.0062
 5185PP      PP15289  15.418  15.291   3.904 -0.1413  0.2190  0.0115
 5186PP      PP15290  11.919  13.224  13.217  0.0836 -0.0236  0.1052
 5187PP      PP15291   1.745   9.907   3.070  0.1177 -0.3153 -0.1447
 5188PP      PP15292   2.636   0.828   9.952 -0.2455  0.0917  0.2216
 5189PP      PP15293   8.749   2.606  10.064  0.2032 -0.1133 -0.1049
 5190PP      PP15294  10.435  15.101   2.790  0.0378 -0.1766  0.0102
 5191PP      PP15295   9.791  11.969   3.075  0.1330  0.3913  0.1459
 5192PP      PP15296   5.053  11.584   0.323 -0.0981 -0.0336  0.1061
 5193PP      PP15297   8.432  11.606   4.237 -0.0945  0.0491  0.2601
 5194PP      PP15298  11.558  13.725   9.855  0.0781  0.1296  0.1322
 5195PP      PP15299   1.077   9.882  12.340  0.0125 -0.0327  0.1358
 5196PP      PP15300   5.595   9.254   3.281 -0.0840  0.0554  0.1876
 5197PP      PP15301   5.909   5.929  13.142 -0.1899  0.1171 -0.0397
 5198PP      PP15302   9.548   2.627   8.977  0.0230 -0.1760 -0.2678
 5199PP      PP15303   7.890  12.072  10.846 -0.1101  0.1460  0.1414
 5200PP      PP15304   3.506   7.076   2.191 -0.2407 -0.0356  0.2007
 5201PP      PP15305   5.734  11.031   4.667  0.0224  0.1601 -0.0104
 5202PP      PP15306  11.161  13.527  12.266 -0.1511  0.2200 -0.0434
 5203PP      PP15307   8.505  13.875   3.315  0.0120 -0.0389 -0.1556
 5204PP      PP15308   6.588   5.970   9.671 -0.1529  0.0477  0.2500
 5205PP      PP15309   9.179   2.257   2.815  0.0035  0.0080 -0.2593
 5206PP      PP15310  12.220   6.057   3.739 -0.4986 -0.3320 -0.1505
 5207PP      PP15311   5.324   6.416   2.476 -0.2355 -0.0521 -0.0225
 5208PP      PP15312   0.386   6.880  13.243 -0.2145 -0.1694 -0.0489
 5209PP      PP15313   4.377  15.497   1.732 -0.1868 -0.0045 -0.6286
 5210PP      PP15314  15.490  13.411  11.868  0.1647 -0.0023  0.0681
 5211PP      PP15315  13.214   4.082   2.046 -0.0672 -0.2162 -0.0235
 5212PP      PP15316   8.897   0.376  11.389 -0.1216  0.1076 -0.0840
 5213PP      PP15317   8.538   7.589   4.083 -0.4402 -0.0525 -0.2707
 5214PP      PP15318   0.524  12.656  10.748 -0.0696 -0.0769  0.0722
 5215PP      PP15319   1.286   6.303   3.258 -0.0859 -0.2040  0.0208
 5216PP      PP15320   5.227   5.443   4.618  0.0776 -0.0851 -0.0183
 5217PP      PP15321  11.413   7.443   8.513  0.1954 -0.3451  0.1338
 5218PP      PP15322   6.574  11.869   2.009 -0.2992  0.0613 -0.3811
 5219PP      PP15323   2.209   9.103   9.924 -0.1439 -0.0593  0.2213
 5220PP      PP15324  15.566  13.813  12.276  0.1815  0.0811 -0.0602
 5221PP      PP15325   9.988  14.627   9.428  0.2243  0.2143 -0.0575
 5222PP      PP15326   2.878   9.660  10.422  0.3102  0.0742  0.2128
 5223PP      PP15327   4.449   7.754   3.293 -0.1314 -0.0806 -0.1393
 5224PP      PP15328   1.342   7.476  11.857 -0.2599  0.0068  0.0314
 5225PP      PP15329   6.001   7.242  12.483  0.1960 -0.0181  0.1150
 5226PP      PP15330  14.009   8.667   0.148  0.0989 -0.0606  0.3150
 5227PP      PP15331   2.222   5.123   9.454 -0.1138  0.3248 -0.1151
 5228PP      PP15332   7.254   2.019  10.708 -0.1247 -0.1365  0.2208
 5229PP      PP15333   9.004   3.488   2.582  0.1873 -0.0561 -0.0905
 5230PP      PP15334   5.115  15.406   8.927  0.0517  0.1122  0.1822
 5231PP      PP15335  15.117   6.408   3.370  0.0592  0.5248 -0.2051
 5232PP      PP15336   9.199   7.846   3.959 -0.1107  0.0571  0.0712
 5233PP      PP15337  15.355   6.766  12.092  0.0203  0.2057 -0.1967
 5234PP      PP15338   4.985   8.439  12.955  0.1793 -0.0421 -0.3400
 5235PP      PP15339  11.092   3.684  11.994  0.0124  0.2504 -0.2252
 5236PP      PP15340  12.256  10.310   1.705  0.1381 -0.0893 -0.2204
 5237PP      PP15341   4.094   4.840   9.566 -0.3833 -0.3534  0.1018
 5238PP      PP15342   3.625   3.628   3.624 -0.2366  0.1118 -0.0227
 5239PP      PP15343  11.790  12.970   9.861  0.0190  0.0030  0.0592
 5240PP      PP15344   6.732  12.664   1.105  0.1781  0.0615  0.0153
 5241PP      PP15345   4.294   1.817   1.065  0.3577 -0.0131  0.1125
 5242PP      PP15346  12.938  14.521   4.457  0.1299 -0.3416 -0.1010
 5243PP      PP15347  10.472   1.766   1.161  0.2428  0.2460  0.0336
 5244PP      PP15348   4.664   4.806   1.197  0.1258  0.3583 -0.1539
 5245PP      PP15349   2.214   7.211  12.103  0.0069 -0.2734  0.2435
 5246PP      PP15350   0.827   0.508  12.033  0.2453  0.0788  0.2054
 5247PP      PP15351  14.495   5.226   2.187  0.0387 -0.0328 -0.1861
 5248PP      PP15352   4.277   8.974  10.745 -0.0855  0.0722 -0.0536
 5249PP      PP15353   5.780  10.974  13.350  0.0482  0.4708 -0.4990
 5250PP      PP15354   9.513  10.164   0.158 -0.1527  0.2700 -0.0344
 5251PP      PP15355  13.014   2.315   3.157  0.2741  0.0802 -0.1866
 5252PP      PP15356   7.734  11.459  12.115 -0.2239 -0.1708 -0.2483
 5253PP      PP15357   4.993   3.162   1.529  0.0393  0.2838  0.1967
 5254PP      PP15358  10.506  12.937  10.882  0.3923  0.1778 -0.3826
 5255PP      PP15359  15.238   9.179   9.230 -0.2788  0.0007  0.0217
 5256PP      PP15360   5.807   5.732   1.593 -0.1046  0.0532 -0.3632
 5257PP      PP15361   9.769  15.352   3.866  0.1108  0.1364 -0.1178
 5258PP      PP15362  10.261   3.116   2.360 -0.3608  0.0830  0.3483
 5259PP      PP15363   2.142   1.171  12.126 -0.3707 -0.1179  0.1316
 5260PP      PP15364  13.987   7.790  12.652  0.2197  0.0201  0.0840
 5261PP      PP15365   3.200   6.667   2.228 -0.1469 -0.0525  0.3714
 5262PP      PP15366   3.773  12.266   3.155 -0.0780 -0.0404 -0.1833
 5263PP      PP15367   4.875  15.038   2.944  0.1864  0.0283 -0.2475
 5264PP      PP15368  15.514  14.597   9.217 -0.1813 -0.2266 -0.4825
 5265PP      PP15369   6.826  11.841  12.019 -0.0401  0.0219 -0.0023
 5266PP      PP15370  15.257   8.110  10.925  0.0891 -0.2113  0.1846
 5267PP      PP15371   8.557   5.003   0.023 -0.0903  0.1640 -0.2186
 5268PP      PP15372  14.670   6.013   3.660  0.0938  0.0406  0.0243
 5269PP      PP15373   5.896   2.299   2.533 -0.2326  0.2081  0.0188
 5270PP      PP15374   1.136  14.806   1.981  0.2256 -0.1503  0.3913
 5271PP      PP15375   4.268   7.326   1.587 -0.2766  0.1930  0.2026
 5272PP      PP15376   5.879  13.639  13.031 -0.1865  0.2326 -0.2514
 5273PP      PP15377   3.139  15.175   0.662  0.0587  0.1677  0.2771
 5274PP      PP15378   2.176  13.191   1.650  0.1120  0.1238  0.3559
 5275PP      PP15379   2.885  14.751   2.199  0.0052  0.0033  0.4681
 5276PP      PP15380  13.195   6.197   0.092 -0.1099 -0.0468  0.0655
 5277PP      PP15381   4.258   5.788   9.868  0.2039  0.0357 -0.3570
 5278PP      PP15382  10.600  11.123   8.577 -0.1229 -0.2366  0.0334
 5279PP      PP15383  10.925  11.409   0.377  0.1198 -0.2633  0.0932
 5280PP      PP15384  10.139   5.163   2.742  0.2844  0.1740 -0.0859
 5281PP      PP15385   7.904   3.048   3.983  0.1602  0.1653 -0.0025
 5282PP      PP15386   1.838   8.108   0.503  0.1841  0.0350  0.0377
 5283PP      PP15387   1.917  13.592   9.416 -0.0715 -0.1692  0.1919
 5284PP      PP15388   7.889  14.832  13.292  0.0439  0.2008 -0.1525
 5285PP      PP15389   2.483   3.931  13.418 -0.2658 -0.1377 -0.0585
 5286PP      PP15390   8.784  15.787   9.960 -0.0693 -0.1103  0.0149
 5287PP      PP15391   0.128   7.314  13.126  0.0874  0.0283  0.0439
 5288PP      PP15392   0.099  11.729   2.767  0.3386 -0.0003  0.0325
 5289PP      PP15393   0.044   3.492   9.372 -0.1351 -0.0091 -0.0861
 5290PP      PP15394  13.409  15.824   1.779  0.1737 -0.0723 -0.1584
 5291PP      PP15395   2.996   3.125   2.979  0.0536 -0.0796 -0.0880
 5292PP      PP15396   9.436  12.422   8.054  0.2126 -0.1864 -0.1978
 5293PP      PP15397   5.529   7.238  12.288 -0.0255  0.1468  0.0401
 5294PP      PP15398   4.372   3.867   2.498 -0.1618  0.2396 -0.0515
 5295PP      PP15399  15.672   5.770  12.035 -0.2203 -0.1328  0.0795
 5296PP      PP15400   5.561   2.956   4.353 -0.1172  0.0268 -0.1619
 5297PP      PP15401  11.524   8.841  12.773 -0.0626 -0.1514 -0.0904
 5298PP      PP15402  13.913  13.647   0.368  0.0660  0.0521 -0.0959
 5299PP      PP15403  14.863  13.193   9.288  0.1549 -0.2411  0.1832
 5300PP      PP15404   8.381   4.863  10.384 -0.1325  0.1735  0.2319
 5301PP      PP15405   6.889  15.061  11.369  0.1253  0.0260  0.0350
 5302PP      PP15406  13.203   7.966  11.378 -0.2879  0.0798 -0.6868
 5303PP      PP15407   7.468   3.358   1.275 -0.1378  0.1833 -0.3825
 5304PP      PP15408  14.515   3.986   9.729 -0.0416 -0.0187 -0.0370
 5305PP      PP15409  12.636  14.139  10.117  0.0064  0.1162  0.0510
 5306PP      PP15410   8.840  14.653   1.130 -0.0039 -0.1746 -0.2088
 5307PP      PP15411  10.592   1.646  12.674  0.0600 -0.0078  0.0475
 5308PP      PP15412   5.344  15.369  10.291 -0.1151  0.1653  0.0188
 5309PP      PP15413   4.586   1.802  10.411 -0.0272 -0.2523 -0.1262
 5310PP      PP15414   4.523   2.865  12.732 -0.0103 -0.1235  0.1627
 5311PP      PP15415   0.028   1.496  11.696 -0.1760  0.0548  0.2446
 5312PP      PP15416   4.960   6.396   1.198 -0.1312  0.1827  0.2204
 5313PP      PP15417  10.987   5.432   2.832 -0.1510 -0.1685  0.3026
 5314PP      PP15418  11.560  10.105  11.580 -0.0761  0.2820 -0.1406
 5315PP      PP15419   9.003   2.432   0.888 -0.1000 -0.0620 -0.0472
 5316PP      PP15420  12.606   9.715   9.412  0.0468 -0.1218  0.0490
 5317PP      PP15421  13.318  14.109   3.143  0.0107  0.0472 -0.0749
 5318PP      PP15422   3.000   9.304   3.413 -0.2642  0.0046  0.0636
 5319PP      PP15423   4.714   4.964   0.628  0.0285 -0.2480 -0.1762
 5320PP      PP15424   8.794   8.763   2.659  0.3631 -0.2495 -0.2411
 5321PP      PP15425  11.422   6.906   3.020 -0.0554  0.0806  0.1112
 5322PP      PP15426   9.172   1.276   3.776 -0.2294  0.1771  0.2298
 5323PP      PP15427  10.438   7.377  11.148  0.1864 -0.2729  0.0943
 5324PP      PP15428  12.421  15.429  10.553 -0.1478 -0.0266 -0.3688
 5325PP      PP15429   8.733   4.190  11.287  0.0079  0.2408  0.0494
 5326PP      PP15430   3.799   7.991   9.615 -0.0696 -0.0152  0.0679
 5327PP      PP15431  11.992   5.052   4.342 -0.2020  0.0770 -0.0463
 5328PP      PP15432   9.683  14.258   0.598 -0.0465 -0.3470 -0.0985
 5329PP      PP15433  13.797  10.710  10.266 -0.4026 -0.0051  0.1223
 5330PP      PP15434   1.317  12.681   1.397  0.0069 -0.0439 -0.0714
 5331PP      PP15435   5.794   5.690   4.769  0.0803 -0.0729 -0.3745
 5332PP      PP15436  14.783  13.203   0.894 -0.0979  0.0113  0.0741
 5333PP      PP15437  15.041  11.530  10.613 -0.0344 -0.2939  0.0945
 5334PP      PP15438   5.753   1.628  10.339  0.1358  0.0452 -0.2173
 5335PP      PP15439   5.427  13.209   9.430  0.0090  0.2996  0.1700
 5336PP      PP15440   6.711  10.914  13.039 -0.0034  0.1109 -0.3341
 5337PP      PP15441   3.775   7.225   3.530 -0.0149 -0.0134 -0.4211
 5338PP      PP15442   9.043   0.005   2.068 -0.0254 -0.0598 -0.1634
 5339PP      PP15443  11.680   3.461   9.774  0.0607 -0.0344 -0.2094
 5340PP      PP15444   1.873   4.784  12.788  0.2397  0.1415  0.1400
 5341PP      PP15445  13.365   4.448   8.945  0.3295 -0.2254  0.1406
 5342PP      PP15446   8.551   0.156  12.796 -0.1168 -0.0571 -0.0379
 5343PP      PP15447   2.830  14.578   1.488  0.0107  0.0585 -0.0233
 5344PP      PP15448   7.619   7.581  10.624  0.0170  0.4939 -0.1717
 5345PP      PP15449   7.592   9.343  12.396  0.1447 -0.2434  0.0698
 5346PP      PP15450   5.755   1.277   4.012  0.0353  0.0063  0.0506
 5347PP      PP15451  11.573  10.125   0.360 -0.1370  0.1231  0.0256
 5348PP      PP15452   5.753   8.029  11.067 -0.1313 -0.1302 -0.0651
 5349PP      PP15453  14.943  13.650   8.958 -0.1508 -0.1683  0.0041
 5350PP      PP15454  10.439  11.151  10.630 -0.0504 -0.1835 -0.1818
 5351PP      PP15455   2.065   8.868   1.429  0.2062  0.0624  0.3334
 5352PP      PP15456   5.670  14.435   1.288 -0.4036  0.0742  0.1026
 5353PP      PP15457   5.324  15.362   4.804  0.0806 -0.1854 -0.1672
 5354PP      PP15458  13.911  14.701  10.347 -0.1129 -0.1244  0.2521
 5355PP      PP15459  11.911   0.802   9.315  0.1909 -0.2397  0.1701
 5356PP      PP15460   0.599   7.795   0.853  0.0828  0.1421  0.1364
 5357PP      PP15461   3.402   1.023   4.410  0.0311 -0.0961  0.1036
 5358PP      PP15462   1.698   9.357  12.734 -0.1253  0.0924  0.6544
 5359PP      PP15463   0.313   2.360  12.742  0.0680 -0.1373  0.0984
 5360PP      PP15464   0.787  14.385   2.022 -0.0661 -0.1430 -0.0079
 5361PP      PP15465   0.632   3.883   4.324  0.3226 -0.2962  0.0103
 5362PP      PP15466  15.776  10.589   0.234 -0.0886  0.3075  0.3186
 5363PP      PP15467   5.690  15.526   2.624  0.1419 -0.0715 -0.1590
 5364PP      PP15468   3.015  14.732   0.906  0.1079  0.0187  0.0148
 5365PP      PP15469   7.107   8.295  10.118  0.2102 -0.4916 -0.0476
 5366PP      PP15470   3.176   2.678   2.728  0.0333  0.0672  0.3645
 5367PP      PP15471  11.714   2.201  13.025 -0.2148  0.0605  0.2420
 5368PP      PP15472  15.720  11.995   1.473  0.4516 -0.3108 -0.0541
 5369PP      PP15473  10.439   4.632   2.395  0.0630 -0.0309 -0.1947
 5370PP      PP15474  14.768  13.618   3.970  0.0518  0.1144  0.0247
 5371PP      PP15475  15.880   9.835   4.399  0.0132  0.0300  0.2568
 5372PP      PP15476   2.583   0.411   2.241 -0.5849  0.0230 -0.1175
 5373PP      PP15477   5.804   6.131   1.957  0.2587  0.0143  0.2747
 5374PP      PP15478  10.285   0.022   8.855  0.0524  0.1937  0.0983
 5375PP      PP15479   0.709  15.730  12.765 -0.2164 -0.1659 -0.1501
 5376PP      PP15480   3.181   3.023   1.922 -0.3289  0.1332  0.4853
 5377PP      PP15481   2.760   6.856   3.797 -0.3554 -0.1016  0.1208
 5378PP      PP15482   7.447  14.005  13.023 -0.1420  0.1944 -0.0550
 5379PP      PP15483   3.926   2.962   1.543 -0.0820 -0.2804 -0.0380
 5380PP      PP15484  11.006   9.389  13.018 -0.0268 -0.2062 -0.2504
 5381PP      PP15485   6.908  15.223   3.692 -0.0761  0.1932 -0.0168
 5382PP      PP15486   0.021   1.065   9.839 -0.2550 -0.2417  0.1642
 5383PP      PP15487   0.132  12.911   1.119 -0.1155  0.1807 -0.0284
 5384PP      PP15488   7.515  11.866  13.159  0.0307 -0.1630  0.0470
 5385PP      PP15489   4.510   9.332   4.427 -0.1169  0.0372 -0.2493
 5386PP      PP15490   1.646   1.421  12.289  0.1394 -0.1377  0.2754
 5387PP      PP15491   5.150   2.304  12.523  0.1006 -0.2307  0.0137
 5388PP      PP15492   8.669   4.031   8.688  0.0395 -0.3288  0.0740
 5389PP      PP15493  11.866   2.354   8.981 -0.1169  0.2590 -0.0467
 5390PP      PP15494   9.240  15.117   0.441 -0.0855  0.1796  0.3706
 5391PP      PP15495  15.299   1.419   1.293  0.0083 -0.2306  0.0903
 5392PP      PP15496  14.279  10.686  10.005 -0.3220 -0.0218 -0.1729
 5393PP      PP15497   3.965   6.219   0.598  0.2767 -0.1399 -0.0536
 5394PP      PP15498  12.693   2.962   1.394 -0.2656 -0.0054  0.0511
 5395PP      PP15499  11.265   2.104   5.051  0.1891 -0.2615 -0.2782
 5396PP      PP15500   0.805   8.323  12.680  0.0628 -0.0177 -0.0459
 5397PP      PP15501   0.046   1.794   1.723  0.1670 -0.0755 -0.1551
 5398PP      PP15502  12.792   4.709  10.541 -0.1795 -0.0842  0.1957
 5399PP      PP15503   6.277   8.527  13.437 -0.0245 -0.0636 -0.0246
 5400PP      PP15504  10.939  12.641   1.667 -0.2456 -0.2645  0.0745
 5401PP      PP15505   0.293  10.923  10.777  0.0717 -0.1188  0.0083
 5402PP      PP15506   0.170   9.556  12.631  0.1349 -0.2703  0.2432
 5403PP      PP15507  10.294  12.400   3.124  0.2702 -0.2098 -0.0458
 5404PP      PP15508   8.200  14.868   0.297 -0.0070  0.1140 -0.2386
 5405PP      PP15509  11.860  14.049   0.258 -0.4281  0.1389 -0.0790
 5406PP      PP15510  14.466  15.750  12.142  0.0737 -0.1260  0.0587
 5407PP      PP15511  12.716  13.463  11.309  0.0491 -0.2398  0.1953
 5408PP      PP15512   4.282   7.824   5.165 -0.1735 -0.3739 -0.1481
 5409PP      PP15513   5.733  13.280   2.635 -0.1502 -0.1114 -0.0250
 5410PP      PP15514   1.154   0.670  10.796 -0.4511  0.2960 -0.1290
 5411PP      PP15515  13.336   6.087   2.488 -0.0152  0.0548 -0.0975
 5412PP      PP15516  13.608   6.499   9.377  0.0108  0.1725 -0.0701
 5413PP      PP15517   6.446   8.944   1.134 -0.2596 -0.2296  0.0923
 5414PP      PP15518   1.463   0.052  10.401  0.0838  0.0416  0.1067
 5415PP      PP15519   6.571   7.376   1.662  0.0635 -0.1725 -0.0302
 5416PP      PP15520  13.239   3.814  12.065  0.2276  0.0922 -0.5015
 5417PP      PP15521   2.235   2.784  10.847  0.1335  0.1539 -0.0152
 5418PP      PP15522  14.180  11.248  11.750 -0.1348 -0.0673  0.0198
 5419PP      PP15523   6.807   2.777   0.305 -0.2406 -0.1165 -0.4493
 5420PP      PP15524   7.419   0.558   0.797 -0.2592  0.1699  0.1426
 5421PP      PP15525   2.055   4.585   3.789 -0.2551 -0.1972 -0.0026
 5422PP      PP15526  10.862   1.075  10.329  0.0505 -0.1275 -0.0996
 5423PP      PP15527  11.355  11.646   1.197 -0.1411 -0.0147 -0.0020
 5424PP      PP15528  15.871   8.469   2.407  0.0963  0.1274  0.0972
 5425PP      PP15529   9.968   2.603  10.802  0.1215 -0.1469  0.1194
 5426PP      PP15530  13.845  14.565   1.277  0.0422  0.0430  0.1013
 5427PP      PP15531   5.396  12.750   8.975 -0.0673 -0.1782  0.0374
 5428PP      PP15532   6.283   5.399   1.857 -0.1766  0.0956  0.1983
 5429PP      PP15533  11.871  12.512   2.421 -0.1267  0.3222  0.0321
 5430PP      PP15534   6.041  12.616   0.719  0.1264  0.1036 -0.2341
 5431PP      PP15535  12.373   8.645   2.072 -0.0506  0.0173  0.0539
 5432PP      PP15536   5.917  12.417  10.866  0.3922  0.0401  0.2646
 5433PP      PP15537  13.554   2.860   0.099 -0.4484  0.1031  0.4364
 5434PP      PP15538  15.163   9.637  13.226 -0.2798  0.1270 -0.0629
 5435PP      PP15539   2.444  11.263   1.367  0.2277 -0.1070 -0.2634
 5436PP      PP15540  12.267   1.383  11.793 -0.0781 -0.1857  0.0287
 5437PP      PP15541  12.096   4.392   4.192  0.0783  0.1638  0.1609
 5438PP      PP15542   0.824  12.526  13.024  0.0595  0.1270  0.2034
 5439PP      PP15543   9.703  14.898   4.080 -0.0156 -0.1784 -0.3913
 5440PP      PP15544   8.191   5.919   1.894 -0.2044  0.2677 -0.1795
 5441PP      PP15545   3.680  15.771   2.449  0.2565 -0.0585 -0.0369
 5442PP      PP15546  13.121   2.798   3.028 -0.1048  0.1416 -0.3218
 5443PP      PP15547   6.327   1.296   2.727  0.0761 -0.0473 -0.2830
 5444PP      PP15548   8.858   5.330   9.290 -0.3435  0.1425 -0.0078
 5445PP      PP15549   0.972   5.149   1.132  0.1399  0.1767 -0.0560
 5446PP      PP15550  11.779  15.775   1.904  0.1412  0.3664 -0.0442
 5447PP      PP15551   9.587   1.088  11.927 -0.0777 -0.0466 -0.0364
 5448PP      PP15552   0.342   8.097  10.856  0.1251  0.1724 -0.1580
 5449PP      PP15553  14.332  10.497   0.674  0.3247  0.1317 -0.2615
 5450PP      PP15554  15.816  11.468   4.369  0.3667 -0.1127 -0.2235
 5451PP      PP15555  10.812  11.933  10.870  0.0632  0.0347 -0.0288
 5452PP      PP15556   0.706  12.622   0.118 -0.0107 -0.1017 -0.2164
 5453PP      PP15557  12.276   4.095   1.603 -0.1633  0.0389  0.1913
 5454PP      PP15558   2.454   7.300   0.708 -0.0145 -0.1801 -0.1400
 5455PP      PP15559   8.714   0.157  10.410  0.2209  0.0945  0.1021
 5456PP      PP15560  10.353   2.773  13.128  0.3074  0.1466  0.0962
 5457PP      PP15561  11.189   9.219   2.363 -0.2022  0.2478 -0.0138
 5458PP      PP15562   2.151   6.852  11.533  0.2112  0.0325  0.0397
 5459PP      PP15563   1.648   3.948   4.600 -0.0544 -0.1469  0.0638
 5460PP      PP15564   2.615   5.223   9.104 -0.1187 -0.0542 -0.0896
 5461PP      PP15565  14.979  11.061   4.232  0.1471 -0.2937  0.0003
 5462PP      PP15566  13.716  14.546   4.238 -0.1387 -0.1521 -0.0107
 5463PP      PP15567  11.067   1.711   3.023  0.0406 -0.1539  0.0440
 5464PP      PP15568   8.227   7.957   4.217  0.2342  0.0285 -0.2509
 5465PP      PP15569   7.611   1.597  10.912  0.0499 -0.0109 -0.0473
 5466PP      PP15570   2.464   1.820   2.221  0.1873 -0.3848 -0.0197
 5467PP      PP15571  11.621  12.812   2.019 -0.0705  0.1865 -0.1095
 5468PP      PP15572   9.053   3.650   0.249  0.1358  0.0651  0.2359
 5469PP      PP15573   2.032   1.074   4.329  0.1222  0.3702  0.0944
 5470PP      PP15574   3.522   7.828   5.160 -0.2196  0.0443 -0.0823
 5471PP      PP15575  15.086   0.748  12.010 -0.1419  0.1636  0.0529
 5472PP      PP15576   9.129   5.556   2.242 -0.0485  0.0377  0.2109
 5473PP      PP15577   5.760   4.042   0.416 -0.0228 -0.2075 -0.1233
 5474PP      PP15578  10.400  14.188   2.922 -0.1887  0.3547  0.1330
 5475PP      PP15579  10.274   5.783   0.074  0.3204 -0.2304 -0.1790
 5476PP      PP15580   3.246   8.052  10.695  0.2119  0.0620 -0.4463
 5477PP      PP15581  15.791   9.103   1.613  0.0702  0.2446  0.0469
 5478PP      PP15582  15.874   9.738   2.963 -0.3023 -0.3355  0.0072
 5479PP      PP15583   4.328   3.613   1.220 -0.2344 -0.1392  0.1788
 5480PP      PP15584   3.917   9.880  13.414  0.2095  0.2114 -0.3133
 5481PP      PP15585  10.693   0.470  12.493  0.0310 -0.0587  0.1145
 5482PP      PP15586   4.232   9.427   5.132 -0.4542  0.0729 -0.1476
 5483PP      PP15587  11.778  11.134   9.295  0.2461 -0.1121  0.1939
 5484PP      PP15588   0.383   4.936  10.586  0.0329 -0.0777  0.0041
 5485PP      PP15589   3.706  11.163   2.844  0.1812 -0.1212  0.1313
 5486PP      PP15590  12.702   0.509   2.515  0.0756  0.1299 -0.0583
 5487PP      PP15591  14.882   1.124   2.660 -0.0629 -0.1513  0.0566
 5488PP      PP15592   2.008   3.963   1.705  0.1587 -0.1069  0.1107
 5489PP      PP15593   0.147   4.558   3.832  0.2354  0.1964 -0.0662
 5490PP      PP15594  13.353   1.873   4.111  0.0757 -0.3155 -0.0870
 5491PP      PP15595   2.327   3.135   1.278  0.2946 -0.0465 -0.0151
 5492PP      PP15596   6.632  14.421  12.909 -0.4314 -0.1920 -0.0777
 5493PP      PP15597  11.286   9.440  10.990  0.1480  0.0681 -0.2438
 5494PP      PP15598   0.980  13.069  11.405  0.4264 -0.0384  0.0041
 5495PP      PP15599  11.411  14.292  11.703  0.2026  0.3446  0.0383
 5496PP      PP15600   6.873   6.081   2.699 -0.0210 -0.2088 -0.0294
 5497PP      PP15601   0.674   3.512  10.576  0.1916 -0.0769 -0.1058
 5498PP      PP15602   5.969  10.764   1.217  0.1060  0.3849  0.0315
 5499PP      PP15603  13.436  10.365   4.144  0.1368 -0.0463  0.0259
 5500PP      PP15604  13.436  11.123  11.759  0.1320  0.2899 -0.3615
 5501PP      PP15605   2.590   5.481   1.115 -0.0700  0.0240 -0.2261
 5502PP      PP15606  11.912   9.891   1.728  0.0039  0.0811  0.4033
 5503PP      PP15607  15.367  10.578   3.368  0.0623 -0.1906 -0.1433
 5504PP      PP15608  15.714  15.859   2.137  0.0199  0.0087 -0.0353
 5505PP      PP15609   9.232  10.282   4.505  0.0074  0.2906 -0.0338
 5506PP      PP15610  10.118  15.442   9.742 -0.2064 -0.2529 -0.1096
 5507PP      PP15611  12.787  15.286  11.277 -0.1359  0.1155 -0.1184
 5508PP      PP15612   4.884   4.333  11.698  0.1264  0.2812 -0.0134
 5509PP      PP15613   0.016   3.609   8.064  0.0720 -0.6217 -0.0567
 5510PP      PP15614   0.339  11.111  11.296 -0.0954  0.0151  0.3703
 5511PP      PP15615  14.231   8.650  11.172  0.1859 -0.2815  0.3770
 5512PP      PP15616   6.818  12.629   0.635  0.1293  0.0210 -0.0984
 5513PP      PP15617   1.639   2.225  12.735  0.5049 -0.0354 -0.3165
 5514PP      PP15618  11.541   4.866   9.139  0.2905 -0.2664  0.0890
 5515PP      PP15619   2.906  10.205   0.309  0.2074 -0.0918 -0.0003
 5516PP      PP15620  10.089   4.098   3.585 -0.1548 -0.0457 -0.1875
 5517PP      PP15621   5.626   7.248   0.739 -0.2420  0.0065 -0.1119
 5518PP      PP15622  15.352   2.249   1.846  0.1338  0.1293 -0.0517
 5519PP      PP15623   8.899  14.900   1.792  0.4248 -0.0815  0.1927
 5520PP      PP15624   8.843   4.633   4.092  0.0207  0.2116  0.1726
 5521PP      PP15625  12.962   3.381  12.389 -0.3933  0.1739  0.2419
 5522PP      PP15626  11.622   8.084  12.221 -0.0310 -0.1831  0.2022
 5523PP      PP15627   6.772   8.880  10.625  0.1085  0.0728 -0.0370
 5524PP      PP15628  11.799   8.579   1.566 -0.2109 -0.0894  0.0559
 5525PP      PP15629   4.603  10.626  11.336 -0.2240  0.1290 -0.4502
 5526PP      PP15630   6.898  13.557   1.515  0.2298  0.3933 -0.0311
 5527PP      PP15631   4.841   0.095  12.884 -0.0959 -0.4533  0.2633
 5528PP      PP15632   6.364  12.681  10.978 -0.1355 -0.1666 -0.1026
 5529PP      PP15633  11.236   9.872   4.150  0.2582 -0.1797 -0.1716
 5530PP      PP15634   0.763  15.072   3.270  0.0381 -0.0645  0.1528
 5531PP      PP15635  15.075   9.206  12.760 -0.0795 -0.2058 -0.0145
 5532PP      PP15636  11.955  10.245  10.150  0.2300  0.0018 -0.0379
 5533PP      PP15637  12.010   5.609   4.376  0.0034 -0.0095  0.2467
 5534PP      PP15638  13.997  14.479  13.347  0.1854 -0.1325  0.0791
 5535PP      PP15639   8.793   5.989   1.441  0.2909 -0.2563 -0.0381
 5536PP      PP15640   1.707  15.260   3.052  0.3919 -0.0105 -0.2460
 5537PP      PP15641   0.594   8.396   1.159  0.0688  0.2094  0.0671
 5538PP      PP15642   9.952   5.927  11.498 -0.1384  0.0391  0.0133
 5539PP      PP15643   1.378   5.545   9.453 -0.0580  0.0006 -0.1684
 5540PP      PP15644  13.975  12.256  12.731  0.0607 -0.1509  0.0835
 5541PP      PP15645   8.921   0.785   2.570  0.0129 -0.1582 -0.0090
 5542PP      PP15646  10.934   5.408   2.323 -0.0119 -0.3410  0.0509
 5543PP      PP15647   9.980   3.226  11.876  0.1524  0.0439  0.3440
 5544PP      PP15648  14.239  10.745  11.054 -0.3302  0.3558  0.3388
 5545PP      PP15649  13.300   7.182  11.639  0.3058 -0.0233  0.0378
 5546PP      PP15650   8.103  12.910   5.003  0.1381 -0.0360  0.2290
 5547PP      PP15651  15.452   2.850   3.109 -0.2527 -0.1138  0.1494
 5548PP      PP15652   7.066   4.367   0.176 -0.0028 -0.1788  0.0556
 5549PP      PP15653  14.578  15.731  10.308 -0.0034 -0.0954 -0.2833
 5550PP      PP15654   0.716  10.376   0.233  0.0505  0.2436  0.0845
 5551PP      PP15655  12.326   7.295   1.920 -0.1734 -0.0802  0.1032
 5552PP      PP15656   6.042  14.383  12.189  0.0010 -0.0007  0.0628
 5553PP      PP15657  12.521   6.520   5.290 -0.2201  0.0000  0.1145
 5554PP      PP15658   9.955  14.864  10.980  0.0885 -0.2585 -0.2440
 5555PP      PP15659   6.072   0.137  10.717 -0.2853  0.0674 -0.2156
 5556PP      PP15660  13.966   8.532   2.854  0.2930 -0.2742 -0.1424
 5557PP      PP15661   3.474   9.832   1.720 -0.0586 -0.3291  0.0104
 5558PP      PP15662   3.744   1.930  10.067  0.5021 -0.1610 -0.0777
 5559PP      PP15663  14.809   5.391  11.937  0.0160 -0.3787  0.1930
 5560PP      PP15664   8.417   0.223  12.300  0.2001 -0.3049 -0.2827
 5561PP      PP15665  14.254   9.431   0.161  0.0482  0.2426  0.0154
 5562PP      PP15666   7.724  10.410  12.618  0.2873 -0.1972  0.0313
 5563PP      PP15667   1.211  13.357   9.363  0.2314 -0.2475  0.3696
 5564PP      PP15668  15.248   2.771  10.605 -0.1919  0.2326  0.1838
 5565PP      PP15669   0.748   8.502  10.238  0.0226  0.1329  0.0563
 5566PP      PP15670   6.969  14.054   1.203 -0.1509  0.0099  0.0512
 5567PP      PP15671  12.695   0.517   8.781 -0.1083 -0.0360  0.0656
 5568PP      PP15672  11.663  11.188   8.806  0.0370 -0.3154 -0.0631
 5569PP      PP15673  13.077  14.302   2.130  0.2675 -0.0321  0.0380
 5570PP      PP15674   4.487  14.953   3.970  0.0960 -0.4105  0.1376
 5571PP      PP15675   6.688   6.456  11.497  0.1960 -0.1509  0.0589
 5572PP      PP15676   3.890  12.203  11.387  0.3317 -0.0471  0.0179
 5573PP      PP15677  11.115  10.361   8.227 -0.0114 -0.0799  0.2136
 5574PP      PP15678  10.962  11.217   1.282 -0.0639  0.3269  0.0986
 5575PP      PP15679   2.873  12.949   9.388 -0.3955 -0.0743 -0.3520
 5576PP      PP15680   4.801   6.489   4.700  0.1393 -0.0698  0.1837
 5577PP      PP15681   9.498   1.236   0.272  0.2069  0.0317  0.4187
 5578PP      PP15682  10.336   3.924   9.079 -0.0357 -0.0289 -0.1478
 5579PP      PP15683   9.999   7.156   1.673 -0.0568 -0.0453 -0.0029
 5580PP      PP15684  12.998   2.989   2.087 -0.2971 -0.2575 -0.0954
 5581PP      PP15685   1.139  10.308  11.905 -0.2891 -0.1411 -0.1253
 5582PP      PP15686   1.173  12.360   9.672  0.3779 -0.3281 -0.1854
 5583PP      PP15687  11.504  12.620  10.550 -0.0600  0.2338  0.0864
 5584PP      PP15688   5.910   5.128   9.219  0.4216 -0.3093  0.0156
 5585PP      PP15689  15.883   5.880   4.321  0.0596 -0.0731 -0.2670
 5586PP      PP15690  15.222   4.497  12.982  0.2389 -0.1621 -0.1578
 5587PP      PP15691   4.360   7.200   5.211 -0.0442 -0.0570  0.3530
 5588PP      PP15692  13.338   2.595   4.493 -0.1061  0.5703  0.0942
 5589PP      PP15693   2.363   5.556   3.449  0.3662 -0.0988 -0.1275
 5590PP      PP15694   0.631   4.911   5.132  0.1024 -0.1666  0.0661
 5591PP      PP15695   0.687  10.955   2.741  0.1048 -0.0753  0.0340
 5592PP      PP15696   0.123   4.743  10.201  0.0135  0.0240 -0.0858
 5593PP      PP15697  10.466  12.041   0.202  0.1213  0.0024  0.0416
 5594PP      PP15698   4.129   1.513   3.245  0.2148 -0.1720 -0.0942
 5595PP      PP15699   4.074   1.001   0.132  0.0470 -0.2519  0.3917
 5596PP      PP15700   7.759   6.169  12.246  0.0429 -0.3690  0.1652
 5597PP      PP15701  11.387  11.198   9.595  0.1032  0.3192  0.0122
 5598PP      PP15702  13.969   7.991   9.393 -0.1205  0.0199  0.0984
 5599PP      PP15703   4.784   9.830   1.090 -0.2233  0.2426  0.1696
 5600PP      PP15704   6.896   3.756   1.956  0.0426 -0.0240 -0.0529
 5601PP      PP15705  14.287  10.421  10.603 -0.2150 -0.1613  0.3813
 5602PP      PP15706   4.120   2.573  10.798 -0.2418 -0.1530  0.1884
 5603PP      PP15707   6.657   0.907   4.131  0.1409  0.2003  0.1418
 5604PP      PP15708  10.281   7.020  10.179 -0.1581  0.0433  0.2686
 5605PP      PP15709  11.373   4.486  13.157  0.2779  0.3494 -0.0898
 5606PP      PP15710  10.149   6.717   1.816  0.2402 -0.1529 -0.1161
 5607PP      PP15711  12.140  11.100   2.261 -0.0755 -0.1661 -0.2335
 5608PP      PP15712   6.327  15.691   1.729 -0.1218 -0.0199 -0.1848
 5609PP      PP15713   0.832   6.454   3.809  0.0379  0.2605 -0.2187
 5610PP      PP15714   0.462   0.389   0.652  0.1317  0.0079 -0.0939
 5611PP      PP15715   9.725   8.467   3.495 -0.0690  0.1355  0.1658
 5612PP      PP15716  10.140   8.644  10.632  0.0448  0.0656  0.0860
 5613PP      PP15717  15.551   4.585  10.354 -0.0535 -0.1296  0.0167
 5614PP      PP15718  13.678   1.235   3.395 -0.1874  0.0929 -0.1164
 5615PP      PP15719   5.936   6.420  13.112  0.0485  0.0183 -0.1459
 5616PP      PP15720   1.859  10.354   3.316  0.1652 -0.1092  0.0055
 5617PP      PP15721   6.242  13.982   1.722 -0.2826 -0.1496 -0.1676
 5618PP      PP15722  10.417  11.454   1.919  0.3878 -0.1233 -0.0512
 5619PP      PP15723  12.825   3.283   9.662  0.0380  0.1132 -0.0808
 5620PP      PP15724   1.938  11.049   4.341 -0.0721  0.1142 -0.1128
 5621PP      PP15725   5.895   3.213  10.091  0.6422  0.1153  0.1865
 5622PP      PP15726  10.391   8.582  11.710  0.0145  0.2392  0.2762
 5623PP      PP15727   9.104   3.562  12.308  0.2168  0.3016  0.1097
 5624PP      PP15728  12.010  13.563   0.112  0.0901 -0.1729 -0.2631
 5625PP      PP15729  13.231  14.001  10.854  0.1561  0.0780 -0.1947
 5626PP      PP15730   0.052  10.805   3.999  0.2989 -0.0673 -0.3012
 5627PP      PP15731   8.678   9.649   5.141 -0.2192 -0.0866  0.2033
 5628PP      PP15732  12.269   1.028  13.060 -0.2481  0.0847 -0.0438
 5629PP      PP15733  11.583  10.309  10.491 -0.1107 -0.1257 -0.1193
 5630PP      PP15734   7.888   3.793  10.325  0.0862  0.1319  0.0316
 5631PP      PP15735   3.331   8.965   3.712 -0.2034  0.0681  0.0573
 5632PP      PP15736   3.975   0.668   3.039  0.0231 -0.1364 -0.0046
 5633PP      PP15737   6.345   8.515  12.812  0.0037  0.3321  0.1733
 5634PP      PP15738   4.023  12.802   8.798  0.2311 -0.4034  0.2631
 5635PP      PP15739   4.719   9.370   0.233  0.2310 -0.2291  0.0665
 5636PP      PP15740   1.465   9.493   4.297 -0.0707 -0.0270  0.1175
 5637PP      PP15741   7.986   3.680   9.844  0.4269 -0.3109 -0.0737
 5638PP      PP15742   1.385   5.280   1.351 -0.2598  0.1922 -0.1901
 5639PP      PP15743   5.573   4.956   0.623 -0.0253  0.1450 -0.0654
 5640PP      PP15744   5.883  15.210  11.555  0.0705  0.0256  0.1359
 5641PP      PP15745  10.898  14.144   3.052 -0.1651  0.0046 -0.3039
 5642PP      PP15746   6.438  13.938   4.894  0.2781  0.1997 -0.1084
 5643PP      PP15747   1.314   5.970   9.802  0.2792  0.0619 -0.1416
 5644PP      PP15748  12.758  13.280   2.982 -0.1640  0.1226 -0.0576
 5645PP      PP15749  14.586   9.333   1.863  0.1333  0.1976  0.2089
 5646PP      PP15750  11.804  11.337   0.566  0.1549 -0.1113 -0.1215
 5647PP      PP15751   6.775   1.923   9.793  0.1412 -0.0318  0.0411
 5648PP      PP15752   8.883  15.086   0.812 -0.0725 -0.1098 -0.1613
 5649PP      PP15753   5.528   5.388   0.916  0.0968  0.1349  0.0353
 5650PP      PP15754   3.128   9.372  11.760 -0.2134  0.0556 -0.4723
 5651PP      PP15755   1.921  14.335   3.999 -0.2248 -0.1019  0.1820
 5652PP      PP15756  13.261   0.743   1.783  0.0133  0.1455  0.1361
 5653PP      PP15757  14.919   1.895  10.380  0.1480  0.3523  0.3325
 5654PP      PP15758   7.881  15.072   9.788  0.1690 -0.0876  0.0189
 5655PP      PP15759  11.644   0.880  11.647  0.1086  0.3734  0.1937
 5656PP      PP15760  13.991   9.333   2.773 -0.0009 -0.1251  0.0250
 5657PP      PP15761   9.288   0.526   2.870  0.0227  0.0915  0.0291
 5658PP      PP15762  15.683   7.048   3.726  0.2308  0.0780 -0.1389
 5659PP      PP15763   2.623   1.043   8.642 -0.0959 -0.0765  0.0580
 5660PP      PP15764   2.782   3.003   1.476  0.3050  0.3800  0.0822
 5661PP      PP15765  10.320   4.838   9.941 -0.3531  0.0895 -0.0873
 5662PP      PP15766   5.402   4.588  10.077 -0.2694  0.3600 -0.2475
 5663PP      PP15767   9.161  13.296   0.915 -0.0788  0.0824 -0.3489
 5664PP      PP15768   8.277   3.869   9.011 -0.1232  0.0978 -0.2250
 5665PP      PP15769  11.924   3.618   9.052 -0.0572  0.3538  0.0184
 5666PP      PP15770   6.583  14.416   0.956  0.0990 -0.2101 -0.1181
 5667PP      PP15771  11.413  15.262  10.378  0.2102 -0.0342 -0.0706
 5668PP      PP15772  13.797   1.336   0.992 -0.1027 -0.1804 -0.0007
 5669PP      PP15773   0.156   0.360   3.454 -0.0117 -0.2741  0.2842
 5670PP      PP15774  11.403   1.127  12.494 -0.1451 -0.0283  0.3246
 5671PP      PP15775  11.814   4.155   1.382  0.2621  0.1272 -0.0399
 5672PP      PP15776   8.426   9.850  10.245  0.2595  0.0221  0.1104
 5673PP      PP15777  13.469   3.338  10.345 -0.0088 -0.1355  0.2390
 5674PP      PP15778  15.562  10.000  10.503  0.0788 -0.0086 -0.1081
 5675PP      PP15779   5.432   9.902   1.554 -0.5252  0.0350 -0.1859
 5676PP      PP15780  11.592   4.563   1.393 -0.0488  0.0512 -0.2627
 5677PP      PP15781   4.078   9.682   3.428  0.1242  0.3819  0.0773
 5678PP      PP15782  14.157   1.469  12.608  0.1731 -0.2250 -0.3849
 5679PP      PP15783  13.056   0.385  13.133 -0.4701 -0.0447  0.0238
 5680PP      PP15784  15.531   1.061  12.152 -0.2119  0.1515  0.2995
 5681PP      PP15785   8.291  12.265   4.600 -0.1378 -0.0041 -0.0440
 5682PP      PP15786  11.974   6.940   1.116  0.0432 -0.1612 -0.0063
 5683PP      PP15787   8.639   0.668  11.658  0.3409  0.2887 -0.3416
 5684PP      PP15788   1.116   8.027   2.961 -0.1245 -0.0603 -0.2693
 5685PP      PP15789   2.688   8.284   3.700  0.0356  0.1504 -0.2336
 5686PP      PP15790   4.245  14.707  10.138  0.1580 -0.0269  0.0372
 5687PP      PP15791   3.488  13.348   3.073 -0.3285 -0.0432 -0.0323
 5688PP      PP15792   8.736   0.920  10.684 -0.0121 -0.0267  0.0258
 5689PP      PP15793  13.723  15.088  12.558  0.0969 -0.0633 -0.0443
 5690PP      PP15794  13.652  12.565   9.543  0.4486  0.0110 -0.2944
 5691PP      PP15795  12.999  15.728   0.180 -0.2042  0.0931  0.1340
 5692PP      PP15796  10.848   8.254  11.620  0.2934 -0.1760 -0.0026
 5693PP      PP15797   9.656   4.868  11.896 -0.1165  0.1477 -0.2549
 5694PP      PP15798   1.897  13.813  11.866  0.0432 -0.1629 -0.0129
 5695PP      PP15799   5.378   7.213   9.346  0.0375  0.0197 -0.0959
 5696PP      PP15800  12.772   9.072  11.877 -0.2582 -0.0164  0.2853
 5697PP      PP15801   7.270   1.887   8.876 -0.2572 -0.0397 -0.2403
 5698PP      PP15802  10.638   7.329  13.279  0.3334  0.2287  0.2672
 5699PP      PP15803  13.404  11.556   9.218  0.0550  0.0042  0.2897
 5700PP      PP15804   3.410  12.177  12.053 -0.0370 -0.0125 -0.0420
 5701PP      PP15805  13.949   8.126   1.019  0.0926 -0.0377 -0.0937
 5702PP      PP15806  10.425   0.346  10.070  0.0323 -0.0403  0.0488
 5703PP      PP15807   0.292   8.270   4.361 -0.0234  0.0400 -0.1398
 5704PP      PP15808   6.478   8.132   0.273 -0.0033 -0.2597 -0.0709
 5705PP      PP15809   8.347   8.666   4.374 -0.0604 -0.2319 -0.0024
 5706PP      PP15810   5.883  14.384   0.175  0.0328 -0.3587  0.1671
 5707PP      PP15811   5.013   2.451   0.756 -0.1011  0.1783  0.3730
 5708PP      PP15812   2.340   4.842  12.527  0.1408 -0.1511 -0.2814
 5709PP      PP15813   7.357   3.747   4.083 -0.0357 -0.1033  0.0041
 5710PP      PP15814  14.489   2.076  13.135  0.1664 -0.1694 -0.1017
 5711PP      PP15815   9.682  12.804  12.468 -0.0625 -0.0283  0.0119
 5712PP      PP15816   5.117  14.283   2.485  0.0374 -0.1278 -0.1634
 5713PP      PP15817   2.919   2.416  10.702 -0.0618 -0.1321 -0.0789
 5714PP      PP15818   2.455  12.828   9.759  0.1653 -0.4108  0.0563
 5715PP      PP15819  10.808   4.893   9.027 -0.1254  0.1078  0.1587
 5716PP      PP15820  13.859   9.925   9.829 -0.1040  0.1585  0.3064
 5717PP      PP15821  12.834   1.078  10.528  0.1830  0.1213  0.2632
 5718PP      PP15822   7.025   9.483  12.262 -0.1115 -0.0429  0.2438
 5719PP      PP15823   3.582   6.328   2.326 -0.1283  0.0305 -0.0520
 5720PP      PP15824   5.176   3.443   3.697 -0.0773 -0.1904 -0.0302
 5721PP      PP15825   1.164   9.014  10.961 -0.2898 -0.2301  0.1850
 5722PP      PP15826  12.824  14.968   0.652 -0.2078 -0.0002  0.2507
 5723PP      PP15827   3.903  14.269  12.489  0.0384 -0.0507 -0.0299
 5724PP      PP15828   7.161   5.156   2.101  0.1106  0.0395  0.2082
 5725PP      PP15829   4.002   4.513   2.793 -0.0193 -0.0589  0.0566
 5726PP      PP15830  13.274   5.798   2.951  0.0879 -0.0592  0.0110
 5727PP      PP15831   6.138  13.761  11.496 -0.0283  0.2030 -0.2855
 5728PP      PP15832   0.973   6.947  10.404  0.2630 -0.2960 -0.1305
 5729PP      PP15833  11.500   7.313   4.122  0.3808  0.0329 -0.0849
 5730PP      PP15834   2.047  12.366   0.397  0.1125 -0.1659  0.1456
 5731PP      PP15835   2.906   9.718   3.873 -0.0275 -0.2724  0.2826
 5732PP      PP15836  11.976   1.124  11.378 -0.2554  0.1164  0.0457
 5733PP      PP15837   8.231   4.760   1.205 -0.2236 -0.0609  0.1927
 5734PP      PP15838   9.837   9.095   3.468  0.1532 -0.1733  0.0104
 5735PP      PP15839  11.265   7.729   9.974  0.0482 -0.0438  0.3165
 5736PP      PP15840   3.579   1.266   1.098 -0.0614  0.2353 -0.2490
 5737PP      PP15841  12.822   6.305   4.887  0.1761  0.1364  0.2747
 5738PP      PP15842   0.704  11.230  10.488 -0.2290 -0.1137  0.1195
 5739PP      PP15843   8.265   9.938   4.262  0.0785  0.1565  0.3299
 5740PP      PP15844  12.200   1.633   4.101 -0.0291 -0.2966 -0.3151
 5741PP      PP15845  12.179  14.024  12.738  0.0294  0.0614 -0.2127
 5742PP      PP15846   8.771  15.107   2.274 -0.4655 -0.1191 -0.0637
 5743PP      PP15847   3.092   7.577   0.801 -0.1455 -0.0785  0.0262
 5744PP      PP15848  15.221   3.600   1.160  0.0043 -0.0284 -0.0438
 5745PP      PP15849   9.069   5.253   1.857  0.1327 -0.0578  0.2994
 5746PP      PP15850   6.748   3.116   9.196 -0.1538 -0.4832 -0.0375
 5747PP      PP15851   8.455   0.195   3.465  0.0531  0.1930 -0.2704
 5748PP      PP15852   7.133   5.493  10.809 -0.1243 -0.1876 -0.1824
 5749PP      PP15853   4.402   6.949  10.372  0.2520  0.0777 -0.2194
 5750PP      PP15854   5.902  15.880   0.251 -0.0787 -0.1152  0.1162
 5751PP      PP15855   0.419  14.513   3.146  0.3909  0.1302 -0.2800
 5752PP      PP15856   9.922   3.971   4.342  0.1565 -0.0578  0.1838
 5753PP      PP15857  10.055  14.222   0.233  0.0121 -0.0611 -0.3968
 5754PP      PP15858   8.883  15.099  12.396  0.1145 -0.0776  0.0838
 5755PP      PP15859   9.825  15.586   2.973 -0.0943 -0.3056 -0.0857
 5756PP      PP15860   0.816  15.811   9.989  0.0947 -0.0654 -0.0020
 5757PP      PP15861  12.427   0.265  11.921 -0.1464  0.3707  0.0340
 5758PP      PP15862  12.493  12.430   0.050  0.2626  0.0491  0.0746
 5759PP      PP15863   6.669  13.673   3.013  0.1249 -0.0674 -0.1520
 5760PP      PP15864   0.008   2.337  11.778 -0.2723 -0.1519 -0.0240
 5761PP      PP15865  11.567  13.955  12.182  0.1268 -0.0753  0.0052
 5762PP      PP15866   8.840  12.663   8.996  0.3141  0.3977  0.1175
 5763PP      PP15867  14.970  12.687   8.960 -0.0348  0.0493 -0.1932
 5764PP      PP15868   2.444   5.017   2.659  0.2117 -0.1527  0.0957
 5765PP      PP15869  14.206   2.481  12.131  0.0933 -0.0245  0.0886
 5766PP      PP15870   6.738   7.885   9.691 -0.1905 -0.1999  0.2857
 5767PP      PP15871   6.464   0.125   3.786 -0.0646 -0.0766 -0.3383
 5768PP      PP15872   9.021   5.822   9.317  0.1867  0.1859 -0.0529
 5769PP      PP15873  14.371   6.466   4.576  0.2220  0.0226 -0.0622
 5770PP      PP15874   4.579   1.412  12.311  0.1770  0.3509  0.1320
 5771PP      PP15875  11.187  10.434  12.546  0.0313 -0.1793  0.1197
 5772PP      PP15876   1.022   7.904   0.576  0.4023 -0.1093 -0.0316
 5773PP      PP15877   9.506  15.278   9.178 -0.0490 -0.0037  0.0243
 5774PP      PP15878   1.770  10.572   3.785  0.5534  0.1834 -0.0837
 5775PP      PP15879  12.952   7.741   1.665  0.2708 -0.2179  0.0220
 5776PP      PP15880  11.788  14.387  11.956 -0.4818 -0.1320  0.0807
 5777PP      PP15881   1.889   5.022  10.398  0.2233 -0.2665 -0.1230
 5778PP      PP15882   0.770   1.185   1.299 -0.1194 -0.2250  0.0469
 5779PP      PP15883   6.435   0.021   8.482  0.0763  0.0901 -0.1761
 5780PP      PP15884  13.265  14.417   1.383 -0.3566 -0.3272 -0.2292
 5781PP      PP15885   5.170  14.904   9.165  0.2751 -0.0161 -0.3067
 5782PP      PP15886  12.054   1.396   0.542 -0.3535  0.5419  0.0463
 5783PP      PP15887   2.715  15.830  11.998 -0.0936 -0.2630 -0.0915
 5784PP      PP15888  14.604   8.536   9.514 -0.0683  0.4958 -0.1001
 5785PP      PP15889   5.088  13.285   2.118  0.1272  0.2933 -0.0226
 5786PP      PP15890  15.673   1.886  13.181  0.0003  0.0892 -0.0379
 5787PP      PP15891  11.652   5.182  10.005  0.0113 -0.1247  0.1233
 5788PP      PP15892   3.968   8.007   1.146 -0.1768 -0.0679  0.0047
 5789PP      PP15893   3.214   6.866  10.938 -0.1417  0.0723 -0.3630
 5790PP      PP15894  12.871   5.505   4.233 -0.0529  0.1075 -0.1029
 5791PP      PP15895  12.066   4.157  12.018  0.0083 -0.0550 -0.0257
 5792PP      PP15896   9.180   3.958  11.471  0.1335  0.2508  0.1304
 5793PP      PP15897   8.344   7.903   1.797 -0.1292 -0.0073  0.0212
 5794PP      PP15898   4.596   9.167  10.389  0.1973  0.0764  0.0103
 5795PP      PP15899   9.381   6.352   9.390  0.6222 -0.0584  0.0085
 5796PP      PP15900  15.843   2.142   0.160  0.3175 -0.0762  0.1831
 5797PP      PP15901  12.823  13.875   8.501 -0.1408 -0.3660  0.2065
 5798PP      PP15902   8.157   0.964  10.755  0.1266 -0.0050  0.0017
 5799PP      PP15903  14.565  10.607   9.084 -0.1097  0.1183 -0.0383
 5800PP      PP15904   0.597   0.687   1.101 -0.2182 -0.0172  0.3871
 5801PP      PP15905   4.950  11.639   0.784  0.0823 -0.2728  0.1140
 5802PP      PP15906   8.307  11.912   8.792 -0.0172  0.1622  0.0054
 5803PP      PP15907   1.128   7.156   1.183 -0.0743  0.1441 -0.1014
 5804PP      PP15908  14.961   9.632   1.919  0.0835 -0.0225  0.0024
 5805PP      PP15909  15.251   4.952  13.210  0.0579  0.0487 -0.1681
 5806PP      PP15910   9.054   7.182   0.585 -0.0514  0.0606 -0.1131
 5807PP      PP15911   6.429  12.960   0.731  0.1548  0.2341 -0.1049
 5808PP      PP15912   1.557   7.875  12.214 -0.1483  0.2605  0.0793
 5809PP      PP15913   4.512  15.022   0.878  0.0371 -0.0555  0.1524
 5810PP      PP15914  10.851  13.550  10.968  0.2290 -0.1727  0.1745
 5811PP      PP15915   5.931   3.469   2.029 -0.0926  0.0265  0.1338
 5812PP      PP15916   2.282   2.767   9.417 -0.2898 -0.1139  0.1534
 5813PP      PP15917   2.206  10.329   9.461 -0.1737 -0.1614  0.0388
 5814PP      PP15918  12.611   3.373  11.040  0.0992 -0.2203 -0.0290
 5815PP      PP15919   1.499  14.839   0.070  0.0474  0.2148 -0.0539
 5816PP      PP15920  14.790   2.682  12.284 -0.1841  0.0558  0.0996
 5817PP      PP15921  14.241   0.461  10.394  0.1947 -0.1604 -0.1486
 5818PP      PP15922   8.454   3.492   2.053 -0.1627 -0.1962  0.0195
 5819PP      PP15923   8.845   1.361  11.610 -0.0128  0.2893 -0.2650
 5820PP      PP15924   0.523   4.068  12.628  0.0321 -0.3006 -0.0020
 5821PP      PP15925   8.141   7.417  11.228  0.2073  0.1817  0.0349
 5822PP      PP15926   0.775  10.628   3.721 -0.1308 -0.0619 -0.1486
 5823PP      PP15927   8.298  10.778  13.233 -0.1408 -0.0252 -0.0712
 5824PP      PP15928  14.848   2.419  10.587 -0.1027  0.0202 -0.1224
 5825PP      PP15929  13.202   5.424  10.824  0.1270 -0.0796  0.1544
 5826PP      PP15930   1.594  11.684  12.204  0.2525  0.1776 -0.0604
 5827PP      PP15931  11.294   1.627   0.368  0.0307  0.0424  0.2323
 5828PP      PP15932   6.609   9.917   4.727  0.0436  0.2307  0.0228
 5829PP      PP15933   6.401  14.910   0.591  0.2673  0.0314  0.0830
 5830PP      PP15934  11.313   4.513   2.069 -0.2237  0.0397 -0.0400
 5831PP      PP15935   6.118   2.514   9.519  0.0139  0.0525 -0.1501
 5832PP      PP15936   6.034  15.399   9.125 -0.5730  0.1347  0.0746
 5833PP      PP15937  10.455  11.668   8.675 -0.0688 -0.0006  0.0720
 5834PP      PP15938   3.636   3.250   2.213  0.0387 -0.0686 -0.3857
 5835PP      PP15939  14.331   0.982  12.569 -0.0832  0.0878 -0.1296
 5836PP      PP15940   2.043   4.586  11.313 -0.1268  0.0807  0.2233
 5837PP      PP15941  13.959   5.015   1.959 -0.0063  0.0992  0.0821
 5838PP      PP15942   1.639   3.085   2.270 -0.1127  0.1228 -0.0097
 5839PP      PP15943   6.440  10.485   9.866  0.0820 -0.0048  0.0272
 5840PP      PP15944   5.966   2.274   1.212  0.1308  0.1216  0.2138
 5841PP      PP15945   1.756   4.407   1.860 -0.2052 -0.3259 -0.0736
 5842PP      PP15946   7.929  12.913   2.863  0.1545 -0.2080  0.0194
 5843PP      PP15947   5.410   3.925  13.100  0.0391  0.0598 -0.1793
 5844PP      PP15948   4.186  14.148   0.549  0.1011 -0.1876 -0.0995
 5845PP      PP15949   0.088   5.364   3.371  0.3277  0.0267  0.0648
 5846PP      PP15950   6.792   3.222  13.391  0.2815 -0.0460 -0.4360
 5847PP      PP15951  12.954  12.964  10.651 -0.0052  0.0234  0.1499
 5848PP      PP15952   2.447  12.265   0.627  0.2349  0.1805  0.1298
 5849PP      PP15953  15.675  13.886   0.421 -0.0450  0.1423 -0.0752
 5850PP      PP15954   2.200  15.060   8.892 -0.0733  0.0919  0.0194
 5851PP      PP15955  14.628  13.905   3.063 -0.1859  0.1661  0.1227
 5852PP      PP15956   3.594   3.145   3.746  0.0139  0.1543  0.2952
 5853PP      PP15957   8.013   9.816   2.309  0.1071  0.3485 -0.1045
 5854PP      PP15958   7.591   8.451  12.782 -0.0044  0.0088  0.0300
 5855PP      PP15959   8.644   5.661   0.990 -0.3849  0.1630 -0.4142
 5856PP      PP15960   5.898   9.905   1.731  0.0754 -0.0636 -0.0308
 5857PP      PP15961  13.669  11.173  11.056  0.0798  0.2030  0.0081
 5858PP      PP15962   1.371  14.022  10.770  0.3264 -0.2333  0.3922
 5859PP      PP15963  11.684   9.797  13.295  0.2541 -0.3367  0.0948
 5860PP      PP15964  13.932   9.540  11.893  0.0206 -0.2324 -0.1164
 5861PP      PP15965   9.878  11.021   1.035  0.3312 -0.0894 -0.3613
 5862PP      PP15966   3.790   5.263  11.361 -0.2777  0.0887 -0.0114
 5863PP      PP15967   7.707   3.197  13.062  0.2697 -0.0307 -0.0359
 5864PP      PP15968   0.854   4.223   0.148  0.1478 -0.2371 -0.4716
 5865PP      PP15969   0.974  13.555   1.086  0.0370  0.3887  0.2156
 5866PP      PP15970  11.891   5.810  11.052  0.1354  0.2347  0.2099
 5867PP      PP15971  13.191   7.233   0.876  0.0134  0.0249 -0.1479
 5868PP      PP15972   6.659   5.519   0.865  0.0757  0.1161 -0.0040
 5869PP      PP15973  13.406  14.926   1.532  0.0008 -0.2118  0.4357
 5870PP      PP15974   7.177  13.043  11.251  0.0435  0.0343 -0.0850
 5871PP      PP15975   8.515  13.442   1.573 -0.1333 -0.1440 -0.0232
 5872PP      PP15976   2.346   4.556   2.635 -0.0741 -0.1778 -0.1503
 5873PP      PP15977  10.254   4.190   0.016  0.4483 -0.4042 -0.2440
 5874PP      PP15978   5.882   4.337   2.573  0.0496  0.4045  0.0575
 5875PP      PP15979   2.733   2.004  12.769 -0.3312 -0.0880  0.1042
 5876PP      PP15980   1.713   5.451   4.103  0.1589  0.0235  0.0944
 5877PP      PP15981   5.551   4.537   2.914  0.1083 -0.0093 -0.1066
 5878PP      PP15982   3.384  13.464   2.583 -0.0614 -0.0712 -0.1529
 5879PP      PP15983  15.181  13.853  11.289 -0.0486  0.2192 -0.3455
 5880PP      PP15984   2.109   2.145   8.801 -0.5512  0.0085  0.1540
 5881PP      PP15985   4.732  14.746   1.315 -0.0294  0.3135 -0.0884
 5882PP      PP15986   1.015  12.134   0.921  0.0257  0.1062  0.0237
 5883PP      PP15987   3.980  10.615  11.009 -0.2004  0.1173 -0.0465
 5884PP      PP15988   6.156   6.308  10.694  0.1091 -0.0644 -0.0859
 5885PP      PP15989   2.581   3.324  13.150  0.1817 -0.3104  0.0307
 5886PP      PP15990   2.631   2.126   2.585  0.0492 -0.1368 -0.1019
 5887PP      PP15991   1.060   4.258   3.023 -0.0218 -0.1099  0.0997
 5888PP      PP15992   4.623  10.173   0.741  0.0906  0.0174 -0.0177
 5889PP      PP15993   6.308   7.342   3.905 -0.0294 -0.1248 -0.2287
 5890PP      PP15994  15.065  12.699   1.832 -0.0890  0.0450  0.0622
 5891PP      PP15995  11.248  12.927   9.541 -0.4318  0.1724 -0.1292
 5892PP      PP15996   5.342  13.890   0.573 -0.2151 -0.0208  0.1011
 5893PP      PP15997   9.170   2.827   9.287  0.4136  0.2738 -0.0032
 5894PP      PP15998  12.398  12.094   0.346  0.1474  0.0871  0.0180
 5895PP      PP15999   2.784  10.186   2.934 -0.2529 -0.0370  0.2600
 5896PP      PP16000  10.824   3.575   1.034 -0.2978  0.0234  0.3202
 5897PP      PP16001  11.694  12.654   0.671  0.2933 -0.1258  0.0242
 5898PP      PP16002   5.266   2.793   0.959  0.0772  0.1273  0.3704
 5899PP      PP16003   8.125   2.070   9.493 -0.0531 -0.3479 -0.0562
 5900PP      PP16004  12.187   7.749   0.346  0.1313 -0.0169  0.0243
 5901PP      PP16005   3.676   5.663   3.929  0.0252 -0.0791  0.3575
 5902PP      PP16006  10.387  11.179  13.318  0.1752  0.1432  0.3295
 5903PP      PP16007   0.050   2.730   8.464 -0.2671  0.1089  0.0166
 5904PP      PP16008   3.147  10.404   3.797 -0.1553  0.2649 -0.1286
 5905PP      PP16009   0.103  13.919   1.664 -0.0546 -0.0240 -0.0029
 5906PP      PP16010   4.474   4.379  11.350 -0.1414  0.1733  0.1006
 5907PP      PP16011   4.125   5.234   9.983  0.0663 -0.0258  0.1832
 5908PP      PP16012  11.393   6.418   4.289 -0.1000  0.2955 -0.0874
 5909PP      PP16013  10.923  11.824  11.790 -0.1328 -0.2841  0.1626
 5910PP      PP16014  10.374   7.372   1.246  0.0249  0.0050 -0.1658
 5911PP      PP16015  10.827   3.641  10.067  0.1077  0.0389 -0.1146
 5912PP      PP16016   0.797  13.494   9.142 -0.3614 -0.2555 -0.1722
 5913PP      PP16017   2.079  14.282   9.913  0.4527 -0.0954  0.0516
 5914PP      PP16018  11.228  11.299   1.939 -0.2243  0.0050  0.1378
 5915PP      PP16019  14.437   5.856   0.810  0.3669 -0.2083  0.2385
 5916PP      PP16020  10.550   7.749  10.847  0.0663 -0.2172 -0.2608
 5917PP      PP16021   6.196  10.643   3.436  0.2002 -0.2832 -0.1583
 5918PP      PP16022   7.402  14.421   2.874  0.2382  0.1020  0.1706
 5919PP      PP16023   1.511  11.106   3.300 -0.0266 -0.1875 -0.0469
 5920PP      PP16024   5.103   5.340  12.971 -0.1725 -0.0467 -0.0625
 5921PP      PP16025  12.596   3.545   4.528 -0.0108  0.1179 -0.2342
 5922PP      PP16026   1.076   8.437  11.515 -0.1884  0.0366 -0.3050
 5923PP      PP16027   4.165   9.013  13.059 -0.2324  0.1489 -0.2266
 5924PP      PP16028   1.413  13.531   2.840  0.4906  0.0892  0.0903
 5925PP      PP16029   6.892   4.225   9.703 -0.2512 -0.0428 -0.2569
 5926PP      PP16030  15.895   6.460   3.609 -0.2410  0.2673 -0.0627
 5927PP      PP16031  10.331  15.491   3.076  0.2566 -0.1921 -0.3095
 5928PP      PP16032   6.119  12.019   2.701 -0.2091 -0.2024 -0.0152
 5929PP      PP16033  10.359  12.911   9.942 -0.0030 -0.0411 -0.0216
 5930PP      PP16034   2.564   0.257  10.644  0.2800 -0.3001 -0.1230
 5931PP      PP16035   0.915   2.627  12.079  0.1057  0.1065 -0.3078
 5932PP      PP16036  15.127   8.952   0.966  0.1908  0.3866 -0.3810
 5933PP      PP16037   5.134   9.445  12.733  0.1402 -0.0450 -0.1359
 5934PP      PP16038  15.321  10.508   0.045  0.4628 -0.0921  0.3446
 5935PP      PP16039  13.672   8.019  11.749 -0.1024 -0.1746 -0.4000
 5936PP      PP16040   5.192   8.567   0.305 -0.1078 -0.0044  0.3106
 5937PP      PP16041   4.086   6.390   2.265  0.2177  0.2330 -0.2304
 5938PP      PP16042  10.131   3.406  12.284 -0.2837 -0.3816 -0.1415
 5939PP      PP16043   5.339  14.540   0.938 -0.2568 -0.0095 -0.0151
 5940PP      PP16044  13.603  13.161   0.918  0.0736 -0.0300  0.2442
 5941PP      PP16045  14.055   8.241  13.051 -0.1676 -0.1010  0.1381
 5942PP      PP16046  14.587   8.512   1.084  0.0753 -0.2098 -0.1171
 5943PP      PP16047   5.464   5.922   2.766 -0.0566  0.0531  0.3796
 5944PP      PP16048  14.578   7.625  11.378 -0.2574 -0.2722  0.2519
 5945PP      PP16049   3.640  12.004  12.800  0.1673  0.0474 -0.4391
 5946PP      PP16050   3.694   7.028   4.862  0.1568 -0.1320  0.0441
 5947PP      PP16051   5.465   9.158   4.244 -0.1253 -0.1857  0.0847
 5948PP      PP16052  13.451  12.651   3.353  0.0312 -0.3353  0.1359
 5949PP      PP16053  12.288  13.806  11.277  0.2298 -0.1071 -0.0094
 5950PP      PP16054   5.889  15.077  11.058 -0.0987 -0.1904  0.3055
 5951PP      PP16055   1.611   5.008   9.617  0.1017 -0.0084 -0.0363
 5952PP      PP16056   3.215  12.958  10.813  0.2668 -0.2602  0.2317
 5953PP      PP16057  13.373   8.643  10.582 -0.0250  0.0297 -0.2093
 5954PP      PP16058   5.635   6.992   3.622 -0.1768 -0.1497 -0.1300
 5955PP      PP16059   4.522   0.090   1.706 -0.0496  0.1599  0.0223
 5956PP      PP16060  10.691  13.220  11.441 -0.0915  0.1741  0.0038
 5957PP      PP16061  15.675  13.483   3.225 -0.0542 -0.1019  0.0396
 5958PP      PP16062   2.547   7.432  12.458 -0.2125 -0.1059 -0.4359
 5959PP      PP16063   2.394  13.218  12.263  0.2946  0.0083  0.0685
 5960PP      PP16064   6.139   1.338  11.584  0.0889  0.5189 -0.0370
 5961PP      PP16065   8.256  11.114   2.413  0.1749 -0.3363 -0.4045
 5962PP      PP16066  10.957   9.429   1.936 -0.2696  0.1775 -0.0406
 5963PP      PP16067   6.881   6.135  11.949  0.0866  0.0332  0.2226
 5964PP      PP16068  12.343   2.188  10.364 -0.1020  0.0598  0.1352
 5965PP      PP16069   8.975   4.355  10.904 -0.0237 -0.2547 -0.0925
 5966PP      PP16070   8.750  10.680   9.356  0.1356  0.0768 -0.1398
 5967PP      PP16071   5.399   6.903   2.363 -0.3738 -0.0242  0.0942
 5968PP      PP16072   2.665   3.154   2.564  0.0294  0.3543  0.2848
 5969PP      PP16073  10.399  10.826  12.746  0.4186 -0.3224  0.0016
 5970PP      PP16074  15.882  13.521  10.907  0.1630 -0.4513 -0.2179
 5971PP      PP16075   2.425  14.996   2.484 -0.1216  0.0401  0.0598
 5972PP      PP16076   2.807   8.362  12.477  0.1202 -0.2485 -0.1174
 5973PP      PP16077   5.609   3.771   4.243 -0.1871 -0.1045 -0.5541
 5974PP      PP16078   3.940  10.253   1.476 -0.1790  0.0403 -0.1282
 5975PP      PP16079  15.698  14.973   1.074  0.1395  0.1093  0.0930
 5976PP      PP16080  10.689   3.147   9.923  0.0378 -0.0540 -0.0962
 5977PP      PP16081   1.930   9.659   0.886  0.1940  0.0041 -0.2163
 5978PP      PP16082   5.191   4.174  11.389  0.0643  0.0207  0.0027
 5979PP      PP16083   5.348   0.230   4.065  0.1222 -0.1236  0.1131
 5980PP      PP16084   5.028  14.181   0.929  0.0872 -0.0345 -0.0975
 5981PP      PP16085   7.270  10.898  10.273 -0.1032 -0.1801 -0.0580
 5982PP      PP16086   8.233  10.123   3.759 -0.2147  0.1515  0.0898
 5983PP      PP16087   2.803   7.578   4.572  0.2059  0.1747 -0.1243
 5984PP      PP16088   2.677  11.826   1.395 -0.0460 -0.0249 -0.0280
 5985PP      PP16089   3.153   9.949  11.252 -0.0365 -0.2656 -0.2629
 5986PP      PP16090  13.080   7.539  10.350 -0.2802 -0.0429  0.1666
 5987PP      PP16091  10.966   3.750  12.561  0.3038  0.1489 -0.2510
 5988PP      PP16092  15.628   0.241   9.217  0.0238 -0.0169  0.2093
 5989PP      PP16093   2.834  12.595  11.205 -0.1927  0.0812  0.0385
 5990PP      PP16094   0.158   0.884  10.345 -0.2485 -0.0271  0.1834
 5991PP      PP16095  12.578  14.345   1.207 -0.1515  0.3362  0.0375
 5992PP      PP16096   5.619  15.742  13.315 -0.0559  0.4296 -0.0306
 5993PP      PP16097   8.451   1.900  10.363  0.3339  0.2560 -0.0711
 5994PP      PP16098   2.383   8.781   3.775  0.0274 -0.0750  0.0445
 5995PP      PP16099   8.441  12.776  12.288  0.0177 -0.0542  0.1086
 5996PP      PP16100  12.070   1.066  10.861  0.3108  0.0248 -0.0787
 5997PP      PP16101   3.755  15.221   4.365 -0.0697  0.1096  0.0764
 5998PP      PP16102  15.538   5.613   9.963 -0.1820 -0.1523 -0.3349
 5999PP      PP16103  11.418  10.586   0.264 -0.1005  0.2148  0.1947
 6000PP      PP16104  11.813   3.924   0.855 -0.1784 -0.2871 -0.5059
 6001PP      PP16105  11.998  14.994   0.033  0.1315  0.1244  0.0571
 6002PP      PP16106   2.075   3.484   2.459  0.0713  0.1073 -0.1278
 6003PP      PP16107   7.049  10.064   0.413 -0.3202 -0.0537 -0.0794
 6004PP      PP16108   3.966  14.198  13.453 -0.0949 -0.1217  0.0607
 6005PP      PP16109   9.154  13.490  11.897  0.0685 -0.1419 -0.1294
 6006PP      PP16110   0.464   4.275   9.469  0.2316 -0.1031 -0.0018
 6007PP      PP16111   4.630   1.285  10.374  0.2121 -0.0921  0.3281
 6008PP      PP16112  10.434   5.435   1.948  0.0500 -0.0882 -0.1923
 6009PP      PP16113   6.533   5.921   3.388  0.1587  0.0727 -0.1747
 6010PP      PP16114   1.735  10.258   1.475 -0.0215 -0.0429  0.0376
 6011PP      PP16115   6.729  10.446   2.147 -0.1209 -0.1243  0.0027
 6012PP      PP16116   3.812   1.615   0.806  0.0228  0.0911 -0.4035
 6013PP      PP16117   1.822   1.929   4.071 -0.1088 -0.1423  0.0572
 6014PP      PP16118  10.077  14.456   2.447  0.2727 -0.0140  0.3221
 6015PP      PP16119  11.675   5.621  10.244  0.2999 -0.0859 -0.1868
 6016PP      PP16120  12.760   1.703  12.055 -0.3375 -0.0339 -0.3998
 6017PP      PP16121   0.879  14.041  10.962  0.1432 -0.0775  0.1874
 6018PP      PP16122   0.745  13.377   2.230 -0.1143  0.1160 -0.1455
 6019PP      PP16123   2.070   7.550  12.480  0.0659 -0.1137  0.1586
 6020PP      PP16124   3.694   0.324   9.304  0.2111 -0.0222  0.2687
 6021PP      PP16125   4.035  11.451   4.044  0.1448  0.1345 -0.0359
 6022PP      PP16126   9.099   7.785   9.375  0.1954 -0.3386 -0.2642
 6023PP      PP16127   5.722   6.789  12.233 -0.1738 -0.0352 -0.2207
 6024PP      PP16128   2.272   5.868   1.242  0.0803 -0.0849  0.3339
 6025PP      PP16129  14.851   8.126   1.232 -0.0613 -0.0519 -0.0529
 6026PP      PP16130   4.183   1.979   0.490 -0.0569  0.3774  0.4059
 6027PP      PP16131  14.942   3.287  12.063  0.0557  0.1683  0.1494
 6028PP      PP16132  15.865   8.532   4.125 -0.1764  0.1004  0.5160
 6029PP      PP16133   9.275   3.957  12.758  0.2080 -0.0952 -0.0624
 6030PP      PP16134   1.484  10.548  13.439  0.1229 -0.3475  0.0175
 6031PP      PP16135   2.233  12.427  13.361  0.2385 -0.0273  0.1737
 6032PP      PP16136   6.994   8.552   9.660 -0.0995 -0.0403 -0.0737
 6033PP      PP16137  15.545   7.455   0.450 -0.1267 -0.0620 -0.1282
 6034PP      PP16138   1.125   1.399   3.613  0.0271  0.0507 -0.0350
 6035PP      PP16139   7.644   1.835   3.794  0.0197 -0.2329  0.0655
 6036PP      PP16140   0.906  15.378  13.050 -0.1088  0.0807 -0.1218
 6037PP      PP16141  12.212  13.213  11.032  0.1475  0.0582  0.1900
 6038PP      PP16142   3.624   0.225  11.595 -0.1848  0.0774  0.0619
 6039PP      PP16143   6.454   9.292   3.530 -0.3226 -0.3487  0.0862
 6040PP      PP16144   1.682  12.048  13.318 -0.1472 -0.1538 -0.4479
 6041PP      PP16145   2.653   5.398   9.541  0.2320 -0.3096 -0.2033
 6042PP      PP16146  11.240  11.377  12.507 -0.0837  0.2266 -0.1845
 6043PP      PP16147  11.847  12.278  10.662  0.0442  0.0712 -0.3137
 6044PP      PP16148   1.969   9.280   5.217  0.1697 -0.1218 -0.3980
 6045PP      PP16149   4.023   5.299   3.593  0.2711  0.3060 -0.2873
 6046PP      PP16150   5.670   0.669   4.119  0.5682  0.1487 -0.0813
 6047PP      PP16151  11.319  11.119  11.821  0.0730  0.0129 -0.2211
 6048PP      PP16152   9.327  11.594   4.006  0.0455  0.2727 -0.1238
 6049PP      PP16153   5.456  15.585   0.693 -0.0668  0.3365  0.1780
 6050PP      PP16154  11.024  11.935   8.110 -0.0046 -0.0782  0.0407
 6051PP      PP16155   2.463   2.632   2.586  0.0758  0.2422 -0.3952
 6052PP      PP16156   4.775   5.868   0.925 -0.1025  0.1163 -0.1542
 6053PP      PP16157  11.576   6.283  11.759  0.0513 -0.0861 -0.0167
 6054PP      PP16158  11.104   2.467  12.204 -0.0200 -0.1877  0.3862
 6055PP      PP16159  15.379  15.388   2.811  0.1627  0.1698 -0.0218
 6056PP      PP16160  10.094  14.655   0.458 -0.2618  0.2818  0.2856
 6057PP      PP16161  12.843   1.080   9.482  0.0819  0.0505  0.1336
 6058PP      PP16162  15.081   9.461   9.960  0.1108 -0.1812 -0.3211
 6059PP      PP16163   8.608  10.561   0.618 -0.2404  0.1693 -0.1100
 6060PP      PP16164   6.349   9.418   2.942  0.2040 -0.0762 -0.0525
 6061PP      PP16165   5.467   0.601   8.262  0.1435  0.1345  0.1870
 6062PP      PP16166  13.595   4.853  12.664  0.0096  0.3665  0.1274
 6063PP      PP16167   1.715   1.216   9.024  0.3214  0.1514  0.1706
 6064PP      PP16168   2.102  15.338   0.773 -0.1022 -0.0649 -0.0824
 6065PP      PP16169   8.365   0.724  12.313 -0.0703  0.0510 -0.0346
 6066PP      PP16170   5.481   1.423   9.022 -0.1688  0.1322 -0.0840
 6067PP      PP16171   7.116   1.043   3.734  0.1493  0.0513 -0.1377
 6068PP      PP16172  15.298   3.226   3.422  0.1012 -0.2346  0.1476
 6069PP      PP16173  12.823   2.800  10.506 -0.1241  0.2620 -0.0782
 6070PP      PP16174   1.875   4.098   8.865 -0.2802  0.2888  0.0463
 6071PP      PP16175   3.526  14.974   3.485 -0.3941 -0.1991  0.0508
 6072PP      PP16176   7.298   2.912  10.753  0.5869 -0.0467 -0.0097
 6073PP      PP16177  12.495   2.211   4.894  0.2625 -0.2537  0.0308
 6074PP      PP16178   9.142  13.014   8.805 -0.3025 -0.4312  0.3238
 6075PP      PP16179  14.255   0.151   9.956  0.1323  0.0273  0.2300
 6076PP      PP16180  12.906   0.360   3.995  0.0499  0.1921 -0.0522
 6077PP      PP16181   5.812  10.844  10.926  0.2395 -0.1078 -0.0702
 6078PP      PP16182   9.873   4.380   3.220 -0.2652 -0.0534 -0.0474
 6079PP      PP16183   8.379   1.457   2.776 -0.2554 -0.1040  0.0317
 6080PP      PP16184  11.635  13.322  12.699 -0.0396  0.0328  0.0467
 6081PP      PP16185   0.651   3.106   0.802  0.1206  0.0546 -0.0586
 6082PP      PP16186  14.029  12.852   2.484  0.1232 -0.1230  0.0388
 6083PP      PP16187  15.032   6.749   2.000 -0.4603 -0.0163  0.1044
 6084PP      PP16188   4.361  14.318   3.364  0.1812 -0.1600 -0.0403
 6085PP      PP16189  14.656   7.203  11.626  0.0604  0.0974  0.0276
 6086PP      PP16190  15.756  13.197  11.338 -0.0301  0.1718  0.0851
 6087PP      PP16191   9.430  10.506  10.762 -0.3038  0.3050  0.2329
 6088PP      PP16192   4.406  13.970   0.128 -0.1400 -0.5045 -0.2848
 6089PP      PP16193  14.342   4.945   9.822 -0.0369 -0.1076 -0.0041
 6090PP      PP16194   9.869   7.512   9.548  0.0846  0.0612  0.2439
 6091PP      PP16195   0.881  13.730   1.612 -0.2866  0.1320  0.0245
 6092PP      PP16196   6.674  10.742  10.765  0.0566  0.0517  0.0552
 6093PP      PP16197   3.585   8.714  10.447 -0.2438  0.0336 -0.0153
 6094PP      PP16198   0.334  11.578   2.109  0.3910  0.1451 -0.0817
 6095PP      PP16199   1.522   8.064  10.812  0.0872 -0.2795  0.1373
 6096PP      PP16200  12.785   9.940   1.622 -0.0791  0.1847  0.1566
 6097PP      PP16201   2.954  15.532   1.868 -0.0597  0.0285 -0.1786
 6098PP      PP16202  14.600   0.359   9.003  0.0126 -0.2694 -0.2508
 6099PP      PP16203   6.865  12.857   2.602  0.0192  0.0745  0.0926
 6100PP      PP16204   5.467   5.950   2.231 -0.0148 -0.3650 -0.1881
 6101PP      PP16205  11.138  12.940   2.122 -0.1429  0.2702 -0.1075
 6102PP      PP16206   9.218  10.221  10.287 -0.0764 -0.0059  0.0136
 6103PP      PP16207   0.029  12.647  12.386 -0.0779 -0.1359 -0.2752
 6104PP      PP16208   1.972   3.735  12.491  0.0603  0.0350  0.1775
 6105PP      PP16209   5.650   6.438  10.737  0.2479 -0.1522 -0.2162
 6106PP      PP16210  13.312  10.055  10.585 -0.3372 -0.1677  0.0010
 6107PP      PP16211   0.261  11.810   3.312  0.2724 -0.3822 -0.0472
 6108PP      PP16212  10.031  12.314   0.272 -0.0235 -0.0305  0.2168
 6109PP      PP16213  10.756  12.274   0.749  0.0585 -0.2323 -0.1305
 6110PP      PP16214  12.408  14.250  13.189  0.0884  0.1047  0.0255
 6111PP      PP16215  14.485   1.497  10.133 -0.0715 -0.0263 -0.0230
 6112PP      PP16216   3.424  15.309   1.797  0.0549 -0.3888  0.0925
 6113PP      PP16217  10.750   4.739   3.978 -0.0999  0.1697 -0.3037
 6114PP      PP16218   6.386   0.666   4.483 -0.2305 -0.2659 -0.4233
 6115PP      PP16219   2.992  10.688  10.933  0.0641  0.1482 -0.0323
 6116PP      PP16220   2.269   5.596  12.053  0.1153  0.1587 -0.0584
 6117PP      PP16221  10.468  14.323   1.642 -0.0972  0.0024  0.0101
 6118PP      PP16222   5.977   5.600   0.069 -0.1743  0.3301 -0.4148
 6119PP      PP16223   1.828   1.757  10.793  0.1066 -0.2005 -0.2411
 6120PP      PP16224  12.679  13.938  11.075 -0.1195 -0.0723  0.1479
 6121PP      PP16225   1.212  13.436   2.405  0.0062 -0.1940  0.0802
 6122PP      PP16226   1.305  13.503  11.356  0.0709 -0.0705 -0.1793
 6123PP      PP16227  13.084  15.202   1.846  0.5089 -0.4540 -0.1578
 6124PP      PP16228   5.680  15.110  10.629  0.0848  0.4934 -0.0671
 6125PP      PP16229  13.263  12.718   1.232 -0.4051  0.2422  0.1516
 6126PP      PP16230   0.327  13.397   4.052 -0.1914  0.0363  0.0219
 6127PP      PP16231   7.731   7.928   3.986  0.0328  0.0868  0.0035
 6128PP      PP16232  13.643   0.370   1.949 -0.1860 -0.0377 -0.0528
 6129PP      PP16233  15.316   9.585   1.202  0.0300  0.2842 -0.1872
 6130PP      PP16234  10.475   1.275  12.265  0.0713  0.0928 -0.2561
 6131PP      PP16235  10.072   7.434   2.627  0.1177 -0.0875  0.1740
 6132PP      PP16236   3.795  12.092  12.352 -0.0974  0.1985  0.2268
 6133PP      PP16237   7.923   5.734   0.137 -0.2311 -0.0907 -0.2219
 6134PP      PP16238  13.552   5.958  10.173  0.0149  0.1427  0.1066
 6135PP      PP16239  10.748   6.570  11.892 -0.0692 -0.2151 -0.1132
 6136PP      PP16240  11.343  10.151   9.418 -0.0184 -0.1613  0.4539
 6137PP      PP16241   6.268   7.800   2.536 -0.1505 -0.1999 -0.2215
 6138PP      PP16242  12.744  11.257   8.997 -0.0462  0.1108 -0.1989
 6139PP      PP16243  12.629  14.262   2.384  0.1640  0.0029 -0.1546
 6140PP      PP16244   6.835  12.397   9.331 -0.2241 -0.2762  0.1540
 6141PP      PP16245   7.713   0.698   9.213 -0.0047  0.0239  0.1485
 6142PP      PP16246   3.320  12.338  12.575  0.4035  0.1169  0.3628
 6143PP      PP16247  14.820  13.262  10.169  0.2696 -0.2136 -0.0458
 6144PP      PP16248  14.359   2.796   3.707  0.0108 -0.1613  0.0047
 6145PP      PP16249  15.674   2.955   1.815 -0.0076 -0.1212  0.0575
 6146PP      PP16250  10.613  13.377   4.060 -0.0535 -0.0019  0.1403
 6147PP      PP16251   2.955   7.203  11.151 -0.4034 -0.3734 -0.0555
 6148PP      PP16252  12.193  14.929  11.523  0.0976  0.0322 -0.1273
 6149PP      PP16253   9.195  10.764   8.864 -0.0272  0.0786 -0.1096
 6150PP      PP16254  13.792   3.894   0.312  0.0702 -0.0038 -0.0234
 6151PP      PP16255  10.812  13.342   0.533  0.1303 -0.0686 -0.3479
 6152PP      PP16256  11.845  14.312   3.288 -0.2372 -0.2398 -0.0546
 6153PP      PP16257  15.495  13.901   1.940 -0.3593  0.0015  0.1802
 6154PP      PP16258   5.957   1.495   2.361 -0.3313 -0.0802 -0.5154
 6155PP      PP16259   0.832   5.115  12.744 -0.0445 -0.1075  0.0294
 6156PP      PP16260   9.617  12.027   0.289  0.0274 -0.1231 -0.1388
 6157PP      PP16261   8.284  11.199   8.211  0.1750 -0.1171  0.0643
 6158PP      PP16262   9.557   2.523   2.508  0.1138  0.0229  0.1427
 6159PP      PP16263  15.644   1.140   0.900 -0.0446  0.1671 -0.3232
 6160PP      PP16264   9.243   7.171   1.043  0.1524 -0.0219  0.1199
 6161PP      PP16265   3.005   0.225  12.453  0.2800 -0.1623  0.3836
 6162PP      PP16266   9.229   4.432   2.265  0.0625  0.0313  0.0885
 6163PP      PP16267   0.961   2.379   9.336 -0.3744 -0.0313  0.0832
 6164PP      PP16268   7.028   0.781   3.281  0.0612 -0.0122 -0.0694
 6165PP      PP16269  14.977  10.675   2.295  0.0206  0.1044  0.1899
 6166PP      PP16270  10.039  10.778   3.847  0.2400 -0.3511 -0.0323
 6167PP      PP16271   7.103   7.098  10.141 -0.0746 -0.0885  0.0812
 6168PP      PP16272  15.450   9.484  12.773 -0.0968 -0.1383  0.1899
 6169PP      PP16273  15.110   8.309  12.747  0.1002 -0.1984 -0.1278
 6170PP      PP16274  11.651   8.084  11.623 -0.0423  0.0892 -0.0183
 6171PP      PP16275   6.129  12.039   1.231 -0.0975  0.0661 -0.2588
 6172PP      PP16276   8.444   6.913   2.216 -0.1435 -0.1538 -0.0691
 6173PP      PP16277  10.583   8.449  10.670  0.0508  0.1248 -0.1582
 6174PP      PP16278   6.504  14.203   3.972  0.0979  0.2805 -0.2620
 6175PP      PP16279  10.673   9.910  11.565  0.3608 -0.3644  0.3439
 6176PP      PP16280   8.754   2.146   4.482 -0.0204  0.0184  0.2580
 6177PP      PP16281  15.352   3.827   4.368 -0.2252  0.0640 -0.0637
 6178PP      PP16282  10.454   5.461  10.914  0.0102  0.1613 -0.0366
 6179PP      PP16283  10.902   4.571  12.941 -0.1503  0.1332  0.0614
 6180PP      PP16284   9.963   3.366  10.390  0.2411 -0.2292 -0.0366
 6181PP      PP16285   3.449   1.583  12.339  0.1943 -0.1398 -0.0179
 6182PP      PP16286   9.545   0.795   9.253 -0.1504 -0.1896 -0.1740
 6183PP      PP16287   9.714   3.104  10.687  0.0592  0.0652 -0.0473
 6184PP      PP16288  14.400   2.080   2.732  0.3338 -0.0023 -0.1453
 6185PP      PP16289   9.044   3.294  13.299 -0.0855 -0.1039 -0.1267
 6186PP      PP16290   4.625  10.306  13.271 -0.2440 -0.1543  0.1691
 6187PP      PP16291   5.377   3.594   0.092  0.1737  0.0574  0.2638
 6188PP      PP16292   2.966  12.036   9.902 -0.3596 -0.0563 -0.1778
 6189PP      PP16293   2.019  11.030   3.850 -0.1514 -0.1773 -0.0019
 6190PP      PP16294  12.094   0.491  12.913  0.0517  0.1108 -0.0074
 6191PP      PP16295   7.651  14.513  12.322 -0.0729 -0.2578 -0.0939
 6192PP      PP16296   1.886   7.738   3.821  0.0657 -0.0805  0.0616
 6193PP      PP16297   9.449   2.251   0.605  0.0382  0.3007  0.0095
 6194PP      PP16298   1.535   1.809   1.972  0.1760  0.1424 -0.2092
 6195PP      PP16299   8.590   7.615  11.388 -0.0904  0.1615  0.0788
 6196PP      PP16300   6.050   8.280  11.513  0.0050 -0.0451 -0.0385
 6197PP      PP16301   3.864   4.413   3.281 -0.2291 -0.1171  0.0704
 6198PP      PP16302   9.473   2.494  10.609 -0.2350  0.1682  0.0109
 6199PP      PP16303   5.775   7.734   2.760  0.2387 -0.1099  0.0361
 6200PP      PP16304   2.131   8.353   2.837  0.1466 -0.0468  0.1688
 6201PP      PP16305  14.157  14.965  12.936 -0.1805 -0.1455 -0.1869
 6202PP      PP16306   5.042   1.583  10.302 -0.0170  0.0405  0.1313
 6203PP      PP16307  12.283  13.688  13.099  0.0818  0.0814 -0.0640
 6204PP      PP16308   7.128  12.579  12.556 -0.1118  0.2683  0.0912
 6205PP      PP16309   8.324  15.235   2.436 -0.3320 -0.1592 -0.1191
 6206PP      PP16310   8.709  11.673   2.716  0.2966  0.0820 -0.2236
 6207PP      PP16311  10.161   2.410   1.817 -0.3362 -0.2350 -0.4248
 6208PP      PP16312   2.782  13.667   1.903  0.0853  0.0163  0.1049
 6209PP      PP16313   7.627  13.149  13.214  0.0125 -0.0769  0.1241
 6210PP      PP16314   0.668  12.937  12.812  0.1278  0.2659  0.0339
 6211PP      PP16315   2.621   6.639   2.106 -0.0626 -0.2155  0.0416
 6212PP      PP16316  11.753  11.761   8.833  0.0592  0.2872  0.1922
 6213PP      PP16317   4.644  13.587  12.708  0.0885  0.0444 -0.2742
 6214PP      PP16318  15.426   6.400   2.233 -0.0500  0.2625 -0.3440
 6215PP      PP16319   9.957   1.553  12.551 -0.3327  0.0156 -0.0093
 6216PP      PP16320  12.150  14.607   9.456  0.0542  0.1721  0.1593
 6217PP      PP16321  13.748  11.251   3.087  0.0137  0.2273  0.1380
 6218PP      PP16322   7.583   6.379  13.127  0.2859  0.1320  0.1574
 6219PP      PP16323   8.170   9.388  12.410 -0.1355  0.1163 -0.0922
 6220PP      PP16324  13.834   4.707  11.580 -0.0114 -0.0865 -0.3591
 6221PP      PP16325  11.674   6.545  10.574  0.1460  0.0972 -0.0986
 6222PP      PP16326   7.688   1.179   1.098  0.1334 -0.3894 -0.0313
 6223PP      PP16327  14.269   2.442   4.897  0.2843  0.1430  0.1011
 6224PP      PP16328   9.491  14.298   1.445  0.0287  0.0942 -0.0834
 6225PP      PP16329   3.444   7.729   4.680 -0.2299 -0.0993 -0.0210
 6226PP      PP16330  12.157   9.832  13.145 -0.2457  0.0568  0.2449
 6227PP      PP16331   7.434   9.519   1.482 -0.3335  0.1806  0.1834
 6228PP      PP16332   4.989  10.544  10.175  0.1539  0.0331  0.0797
 6229PP      PP16333   7.045  12.857  10.296 -0.0868 -0.0622  0.1794
 6230PP      PP16334  13.387  14.126   1.748 -0.0390 -0.1158  0.3394
 6231PP      PP16335   3.769   7.110   3.056  0.1672 -0.1224  0.1995
 6232PP      PP16336  12.806   7.089  10.176 -0.1138 -0.2190 -0.1562
 6233PP      PP16337   3.741   3.509   9.143 -0.0772 -0.0868  0.0520
 6234PP      PP16338  15.759   1.328   1.597 -0.1269  0.1976 -0.3137
 6235PP      PP16339   0.643   5.853  12.141  0.3112 -0.0785  0.1162
 6236PP      PP16340   2.080   0.431   2.755 -0.1431 -0.0600  0.1574
 6237PP      PP16341   8.229   5.879  12.467  0.1254 -0.2814  0.1747
 6238PP      PP16342   7.950   9.003  11.547  0.2533  0.1627 -0.0716
 6239PP      PP16343  14.747  10.115   1.566 -0.1876  0.0073  0.1275
 6240PP      PP16344  11.702   3.166  13.262 -0.1794  0.0931  0.0412
 6241PP      PP16345   7.786   3.938   3.887  0.1367  0.2249  0.3734
 6242PP      PP16346   3.576   8.982  13.081 -0.0455 -0.3684 -0.0356
 6243PP      PP16347  11.321  15.257   0.603  0.0754  0.1837 -0.3856
 6244PP      PP16348  12.551  14.507   1.934  0.0133  0.0338 -0.1353
 6245PP      PP16349   8.643   3.416   3.051  0.2785  0.1020  0.3195
 6246PP      PP16350  13.482   6.375   1.996 -0.1617  0.1716 -0.1518
 6247PP      PP16351  12.509  13.455   2.042  0.0712 -0.1286 -0.0004
 6248PP      PP16352  15.568   8.768   4.544 -0.1653  0.1091  0.4032
 6249PP      PP16353   2.190  10.789   0.126  0.1123  0.2415  0.3312
 6250PP      PP16354   8.634  13.561   9.050 -0.0539 -0.2668 -0.0616
 6251PP      PP16355   4.093  10.778   3.973 -0.1029 -0.0008  0.2474
 6252PP      PP16356   6.724   2.688   1.134 -0.3169 -0.0246 -0.0536
 6253PP      PP16357   7.218  14.600   1.482  0.2225 -0.0707 -0.1970
 6254PP      PP16358  15.493   4.228   3.008  0.0006 -0.0379  0.0472
 6255PP      PP16359   0.740   8.882  12.979 -0.0565  0.0869  0.1466
 6256PP      PP16360   6.139  13.023   2.400  0.0202  0.1575 -0.2328
 6257PP      PP16361   0.665  10.002  12.735  0.1457  0.2192  0.2687
 6258PP      PP16362   1.960   7.784  10.654 -0.1457  0.0157 -0.3991
 6259PP      PP16363  12.952  12.489  11.380 -0.0764  0.2233 -0.2780
 6260PP      PP16364   6.747   6.940   4.083  0.2571  0.0696 -0.2923
 6261PP      PP16365   3.068   8.986  13.036 -0.0859 -0.0175  0.2119
 6262PP      PP16366   9.271  13.662   0.095 -0.2500  0.0151  0.1151
 6263PP      PP16367   7.518  10.684   1.253  0.0109  0.2471  0.1377
 6264PP      PP16368  12.226  12.869  13.019  0.2889 -0.1587  0.2120
 6265PP      PP16369  13.946   4.363   2.776 -0.0304  0.0133 -0.0854
 6266PP      PP16370  12.511   8.761  13.182 -0.1861  0.1802  0.1305
 6267PP      PP16371   8.306   9.901   4.904  0.1064  0.1171 -0.1015
 6268PP      PP16372   5.365  12.074   1.129  0.0538  0.2879  0.0926
 6269PP      PP16373   5.292  10.718   0.009 -0.1477  0.1257  0.1184
 6270PP      PP16374   3.834  12.357   0.919  0.0927  0.1276 -0.0432
 6271PP      PP16375   3.895  14.539   0.365 -0.2052 -0.1329 -0.0230
 6272PP      PP16376   7.342   4.346   1.191 -0.1195  0.3307  0.0675
 6273PP      PP16377   3.911   2.137   4.310 -0.0478  0.2582 -0.0603
 6274PP      PP16378   2.339   7.956   3.636  0.0352  0.1987  0.0360
 6275PP      PP16379   6.612   4.379   0.583 -0.1953 -0.0359  0.3403
 6276PP      PP16380   0.684   5.363   1.492  0.0027 -0.1302 -0.2798
 6277PP      PP16381   9.808   0.483   1.009 -0.1285 -0.0508  0.1705
 6278PP      PP16382   3.683   3.457   2.860  0.1018 -0.0439 -0.0347
 6279PP      PP16383   9.888  15.261  10.681 -0.2484  0.0831 -0.1399
 6280PP      PP16384   2.435   2.957   0.095 -0.2018  0.1602 -0.0811
 6281PP      PP16385   1.037  14.897  12.407  0.1345  0.0983  0.1975
 6282PP      PP16386   0.500   1.288  13.289  0.2090 -0.2800 -0.2073
 6283PP      PP16387  10.782   6.970   9.767  0.1292  0.1311 -0.1439
 6284PP      PP16388  13.685   5.453  10.399  0.0658  0.0026 -0.2080
 6285PP      PP16389  10.168   2.373  12.899 -0.2165  0.0570  0.0269
 6286PP      PP16390   4.873   7.877   2.557 -0.0523  0.1208 -0.0236
 6287PP      PP16391  11.695   1.731   4.061 -0.2329  0.0473 -0.2149
 6288PP      PP16392  10.476   1.409   9.857 -0.0341  0.3796  0.0679
 6289PP      PP16393  13.925  10.211   4.297 -0.0299  0.1981 -0.0263
 6290PP      PP16394   9.083  11.120   4.754 -0.0835 -0.0081  0.1808
 6291PP      PP16395   8.330   6.332   2.296 -0.2707 -0.1530  0.0658
 6292PP      PP16396   8.169  15.030  10.193 -0.2908  0.2335  0.1223
 6293PP      PP16397   7.499  12.483  12.831 -0.0943  0.2491 -0.0231
 6294PP      PP16398   0.732  15.286  11.124 -0.0287 -0.1304 -0.3578
 6295PP      PP16399   2.349   6.934   1.006  0.0071 -0.1078  0.0867
 6296PP      PP16400  15.545   2.016   3.625  0.0997 -0.0510 -0.1111
 6297PP      PP16401   8.127   8.764   3.384 -0.1992 -0.3937 -0.0350
 6298PP      PP16402   5.149   2.333  13.414 -0.3781  0.0911 -0.1433
 6299PP      PP16403  12.162   4.362  12.487  0.0838  0.0356  0.0996
 6300PP      PP16404  14.314  12.682  12.622 -0.1438 -0.0799  0.0780
 6301PP      PP16405  15.201  13.415   9.846 -0.1265  0.2050  0.0122
 6302PP      PP16406  15.035  14.987   1.975 -0.1206 -0.2145  0.1826
 6303PP      PP16407  11.914   1.734   9.665 -0.2455  0.0231 -0.3647
 6304PP      PP16408  14.828   0.245  12.316 -0.4725  0.0628  0.1834
 6305PP      PP16409  15.144  10.093   9.293  0.1159  0.0361  0.1227
 6306PP      PP16410  12.832   1.077   1.859  0.2886  0.0364 -0.1605
 6307PP      PP16411   7.519  13.294   2.954  0.0942 -0.0816  0.2999
 6308PP      PP16412  12.122   6.359   0.970  0.1559 -0.0279 -0.1157
 6309PP      PP16413   3.496  14.237   1.382 -0.0348  0.0056  0.1595
 6310PP      PP16414  12.879   4.453   4.485 -0.3314  0.1038  0.1831
 6311PP      PP16415   9.367  13.277   3.088  0.1142  0.2577 -0.1130
 6312PP      PP16416   9.656   4.040  11.470 -0.1318  0.0130 -0.2759
 6313PP      PP16417  13.694   1.819   2.040 -0.0954 -0.0617 -0.2994
 6314PP      PP16418  14.045   6.850   0.777 -0.0102 -0.3563 -0.1686
 6315PP      PP16419   4.714  15.332   0.059  0.4468 -0.0307  0.1177
 6316PP      PP16420  13.398   0.765  12.884  0.0866  0.2327 -0.4766
 6317PP      PP16421   1.240   1.116   8.923  0.1589 -0.1446 -0.0406
 6318PP      PP16422  11.766  15.264   1.951  0.1021 -0.3133  0.2726
 6319PP      PP16423   7.617  13.357   8.552 -0.0246  0.2402  0.0772
 6320PP      PP16424  10.722   7.582  12.410 -0.1655 -0.1985  0.1755
 6321PP      PP16425  13.711  12.490   2.338  0.0613  0.1138 -0.2894
 6322PP      PP16426   1.270   7.962  12.673 -0.1809 -0.0116  0.2867
 6323PP      PP16427  12.164   5.531   3.526 -0.0590 -0.0312 -0.3890
 6324PP      PP16428   4.145   6.285   9.886  0.5267  0.0612  0.4695
 6325PP      PP16429   6.941   5.906   0.658 -0.1270  0.1246  0.1359
 6326PP      PP16430   8.792   4.905  11.790 -0.3516 -0.2695 -0.1808
 6327PP      PP16431   1.771   5.921  10.743  0.0242  0.0295  0.2880
 6328PP      PP16432   6.770  15.394   1.711  0.1253 -0.1521  0.1206
 6329PP      PP16433   0.093   0.623   4.147  0.0140  0.1865  0.3293
 6330PP      PP16434   8.911   9.275   4.459 -0.2256 -0.0860  0.1352
 6331PP      PP16435  10.881   8.860  10.019  0.0178 -0.0022  0.2873
 6332PP      PP16436   1.449   7.501   4.745 -0.0354 -0.1424  0.0721
 6333PP      PP16437  15.204   5.680   4.611 -0.0298  0.1591  0.4068
 6334PP      PP16438  13.114   7.470   9.286  0.0421 -0.0474  0.0694
 6335PP      PP16439   1.778   4.080   3.632  0.1759  0.3275 -0.1443
 6336PP      PP16440  13.402   6.110   0.535  0.1268 -0.0691 -0.2256
 6337PP      PP16441  10.240   7.074   9.701  0.3725  0.0751 -0.2420
 6338PP      PP16442  14.798   7.835   3.817  0.0749 -0.0885  0.3454
 6339PP      PP16443   7.145   2.308   0.893  0.0879 -0.0757 -0.0434
 6340PP      PP16444  11.867   5.682   3.927 -0.1341  0.0501 -0.0384
 6341PP      PP16445   4.170   3.722  12.858  0.1859 -0.0362  0.0213
 6342PP      PP16446   6.656   7.694   4.267  0.0489 -0.0975 -0.1501
 6343PP      PP16447  15.690   9.450  12.257  0.0751 -0.0716  0.1710
 6344PP      PP16448   5.581  13.179  10.745  0.1718 -0.0374 -0.1935
 6345PP      PP16449  11.094  15.809  13.237 -0.4884 -0.1669 -0.0018
 6346PP      PP16450   9.178   4.804  10.461 -0.2702  0.0704 -0.4808
 6347PP      PP16451   7.031  15.747  11.706 -0.3134  0.1884  0.2396
 6348PP      PP16452   8.883   5.384   0.657 -0.1678 -0.0225  0.1151
 6349PP      PP16453  14.155   5.748  12.389  0.0182  0.3166 -0.1293
 6350PP      PP16454   6.141   9.908   0.158  0.1059 -0.1889  0.1027
 6351PP      PP16455   9.304  10.644   3.138 -0.0138 -0.1514 -0.0655
 6352PP      PP16456  13.543  12.321   0.179  0.0707  0.2703 -0.1274
 6353PP      PP16457  13.346   2.047   2.303 -0.1947 -0.1401  0.0886
 6354PP      PP16458   3.580   4.313  13.216 -0.0918 -0.3842  0.3117
 6355PP      PP16459   2.191   3.600   9.852 -0.1310  0.2433 -0.0585
 6356PP      PP16460   6.299  11.734   4.073 -0.0469 -0.0143 -0.1312
 6357PP      PP16461   2.260   6.847   4.765 -0.2288  0.0758  0.2994
 6358PP      PP16462   5.393   7.635   1.672  0.1253 -0.3516 -0.0746
 6359PP      PP16463  15.245  15.338   0.031 -0.4828 -0.0519 -0.0123
 6360PP      PP16464   9.271   1.082  11.567  0.1109  0.0397 -0.0817
 6361PP      PP16465   8.387   0.690   8.375 -0.0579  0.0990 -0.0104
 6362PP      PP16466  13.453   4.578   2.830  0.1203  0.1061 -0.0330
 6363PP      PP16467  10.493   1.671  11.048  0.1546  0.1035  0.0808
 6364PP      PP16468  13.901  11.026  12.487  0.1701  0.0307 -0.0979
 6365PP      PP16469   5.019  12.110   3.679 -0.3870  0.2455 -0.1621
 6366PP      PP16470   3.706  13.329  10.035  0.1399  0.1288  0.0260
 6367PP      PP16471   9.300   3.684   2.170 -0.3267 -0.1911 -0.1405
 6368PP      PP16472  10.871   5.638  10.211  0.2520  0.2858  0.0195
 6369PP      PP16473  13.155   7.672   0.728 -0.0480 -0.1937 -0.3709
 6370PP      PP16474   9.997   8.243   0.771  0.2177  0.0544  0.5095
 6371PP      PP16475   4.219  12.969  11.538  0.0104 -0.2106  0.1498
 6372PP      PP16476   9.708   6.752  11.319 -0.2409  0.2493 -0.0681
 6373PP      PP16477   4.416   1.044   2.232  0.3092  0.1261  0.1013
 6374PP      PP16478   7.207  15.527   3.120  0.2687 -0.0231 -0.1888
 6375PP      PP16479  10.232   4.179  10.197 -0.0060  0.3213 -0.2061
 6376PP      PP16480   8.100   6.726  10.142  0.3416 -0.0967 -0.1431
 6377PP      PP16481   2.520  15.843   2.824 -0.1757  0.2238 -0.1573
 6378PP      PP16482  11.584   8.573   8.855 -0.0901  0.0155 -0.1345
 6379PP      PP16483   3.237  14.622  12.122 -0.0259 -0.2515  0.1309
 6380PP      PP16484  14.656  11.203  11.823  0.0770  0.0935  0.0545
 6381PP      PP16485  10.554  10.378  11.490 -0.1766  0.0300 -0.3136
 6382PP      PP16486   9.613  10.443  12.114 -0.2130  0.0513  0.1394
 6383PP      PP16487   5.637   3.852   1.861 -0.0222  0.1992  0.1131
 6384PP      PP16488  13.802   5.962  11.254 -0.1396 -0.1372 -0.3922
 6385PP      PP16489   4.637  13.035   0.135  0.2052  0.1230 -0.2721
 6386PP      PP16490   0.179  12.181   0.091 -0.1975 -0.1113  0.1734
 6387PP      PP16491  13.677   8.091   0.100 -0.1605 -0.1082 -0.1472
 6388PP      PP16492   3.328   2.865  10.936  0.0851 -0.0543  0.0866
 6389PP      PP16493   7.425   7.896   0.880  0.0313  0.0801 -0.3183
 6390PP      PP16494   8.047   3.530  12.819 -0.3197 -0.4227 -0.1294
 6391PP      PP16495  14.969   3.803   9.542  0.0174  0.1698 -0.2127
 6392PP      PP16496  15.808   9.101   0.128  0.2703 -0.0007 -0.0284
 6393PP      PP16497  10.127   5.646   8.923 -0.1363  0.4546  0.0945
 6394PP      PP16498   7.360  13.451  11.443 -0.0544  0.0614 -0.3722
 6395PP      PP16499   9.944   5.943   9.204  0.0552 -0.2925 -0.1174
 6396PP      PP16500   7.520   0.917   9.710  0.1832  0.1056  0.0487
 6397PP      PP16501   3.797   4.529   0.259  0.1037  0.0870  0.2084
 6398PP      PP16502   6.328  14.649   1.905  0.3442  0.0995  0.0764
 6399PP      PP16503   7.580  10.392   4.338 -0.1075 -0.2052  0.0793
 6400PP      PP16504  12.197   5.087   2.994 -0.4964  0.0651 -0.0479
 6401PP      PP16505   9.591   5.141  11.197 -0.0333 -0.0198 -0.1980
 6402PP      PP16506   4.718   8.797   4.446  0.0403 -0.0962  0.1417
 6403PP      PP16507  10.665  13.627  12.351 -0.3577  0.1230  0.1888
 6404PP      PP16508   9.566   8.746   4.506  0.0725 -0.2019 -0.0513
 6405PP      PP16509  14.612  14.020   2.476 -0.2725  0.1868 -0.1432
 6406PP      PP16510  15.769  10.720  13.197 -0.0369 -0.1296 -0.2806
 6407PP      PP16511  15.135   9.176   1.534  0.2466 -0.0968  0.0809
 6408PP      PP16512   9.696   4.673   1.605  0.1144  0.2040 -0.3343
 6409PP      PP16513   9.629   5.424   1.948  0.2238  0.1104 -0.0811
 6410PP      PP16514  10.812   5.941   0.935 -0.0974 -0.1709 -0.0284
 6411PP      PP16515  14.784   9.614   1.385  0.1694  0.1533  0.0201
 6412PP      PP16516   0.820  10.560   9.599 -0.0707 -0.1778 -0.0637
 6413PP      PP16517   0.465   7.838   4.168  0.2180  0.0569 -0.2415
 6414PP      PP16518   2.698   3.960   0.411 -0.1465  0.3239  0.0506
 6415PP      PP16519   8.880   1.887  11.143 -0.0348  0.0863  0.0485
 6416PP      PP16520   6.738   8.588  13.205  0.1439 -0.0942  0.1081
 6417PP      PP16521  15.345   4.506  10.842 -0.2926  0.1198  0.0590
 6418PP      PP16522  12.674  13.267   0.728 -0.0191 -0.1824  0.2500
 6419PP      PP16523  10.837   1.793   3.443  0.3368 -0.1036 -0.2178
 6420PP      PP16524   0.956   5.810   0.538 -0.2976 -0.3175 -0.0820
 6421PP      PP16525  10.771  13.310  10.050 -0.1431  0.2779 -0.1686
 6422PP      PP16526   0.428   7.741  10.047 -0.2084  0.1170 -0.3675
 6423PP      PP16527  13.247   8.759  12.032 -0.1949 -0.1106  0.0348
 6424PP      PP16528   8.919  12.106   1.398 -0.0942 -0.2041  0.3407
 6425PP      PP16529   4.335  13.602   2.303 -0.1823 -0.1224  0.0891
 6426PP      PP16530   4.556  15.491   0.564  0.3296  0.0864 -0.1755
 6427PP      PP16531  11.842   4.855   3.941 -0.1138  0.0988  0.1223
 6428PP      PP16532   6.129  11.726   1.646 -0.3284 -0.0383  0.0035
 6429PP      PP16533   8.057  11.579   4.656 -0.0070 -0.1537  0.0251
 6430PP      PP16534   3.511  14.850   4.060  0.0502 -0.1808  0.1541
 6431PP      PP16535  13.662   7.201   3.514 -0.0104 -0.2348 -0.0075
 6432PP      PP16536   6.596   4.008  11.147  0.0156  0.1793 -0.0607
 6433PP      PP16537   2.514  13.169  11.716  0.1622 -0.2716 -0.4501
 6434PP      PP16538   6.028  14.585  10.905 -0.0462  0.1057 -0.1656
 6435PP      PP16539  13.939   6.987  13.328  0.0744 -0.3421 -0.0604
 6436PP      PP16540  11.151   8.348   3.968 -0.1270  0.1164  0.1304
 6437PP      PP16541   6.876   9.965   2.330 -0.4098  0.1392 -0.1929
 6438PP      PP16542   0.230   0.185   3.886 -0.0352  0.0267 -0.1216
 6439PP      PP16543   6.444   8.953   2.797 -0.0527 -0.0684  0.1254
 6440PP      PP16544  15.399   9.683  11.904 -0.2281  0.1858  0.0924
 6441PP      PP16545   5.877   8.804   4.147 -0.1680  0.0829 -0.2199
 6442PP      PP16546   4.778   5.944   9.282  0.1951  0.3465  0.1005
 6443PP      PP16547  11.373   5.848  11.956  0.0302  0.1666 -0.1442
 6444PP      PP16548  10.236  14.262  12.813  0.0056 -0.0955  0.1017
 6445PP      PP16549   2.785   7.312  10.283 -0.0441  0.1091  0.1213
 6446PP      PP16550   4.552   4.610  12.656  0.2808  0.4020  0.0309
 6447PP      PP16551  11.570   5.988   4.159 -0.0823 -0.0282 -0.1502
 6448PP      PP16552  15.892   7.208  11.443  0.5286 -0.0163 -0.1061
 6449PP      PP16553  13.901   1.561  13.129 -0.0990  0.1618 -0.2126
 6450PP      PP16554   2.002   3.247   4.237  0.0399 -0.0609  0.1379
 6451PP      PP16555   1.982   6.620  10.207  0.2379  0.1893  0.0303
 6452PP      PP16556   3.676  15.464  10.778  0.2052 -0.0674 -0.0913
 6453PP      PP16557   2.111  14.159   9.244  0.1678 -0.0749 -0.2301
 6454PP      PP16558  15.721   0.810   1.528 -0.3135 -0.1403  0.1953
 6455PP      PP16559  13.929   9.490  13.134  0.0749  0.0196  0.0351
 6456PP      PP16560   1.203  12.583   1.916  0.2597  0.2624  0.0264
 6457PP      PP16561   9.262   8.822   2.814  0.3105  0.1604 -0.1770
 6458PP      PP16562  14.911   3.450  13.392  0.2061 -0.3636 -0.2230
 6459PP      PP16563   4.595  14.332  13.146 -0.0659 -0.1446 -0.1180
 6460PP      PP16564   1.943   9.668   4.029 -0.1328 -0.1419 -0.2379
 6461PP      PP16565   1.868   9.979   9.614  0.0545  0.0826 -0.0917
 6462PP      PP16566   5.895  11.919  12.069 -0.2607  0.0292  0.2635
 6463PP      PP16567   2.454  12.925  13.338 -0.1888 -0.1201  0.0948
 6464PP      PP16568   2.040   6.847   4.286 -0.2657  0.3708 -0.1986
 6465PP      PP16569  13.988   5.632   0.903  0.2225  0.1382  0.1562
 6466PP      PP16570  12.883   1.650   3.272 -0.0909 -0.2006  0.1593
 6467PP      PP16571  10.250  11.509  10.168  0.1028  0.2837 -0.0272
 6468PP      PP16572   5.832   2.388  11.066  0.1010  0.0267  0.0855
 6469PP      PP16573  12.141  12.482   2.843  0.3339 -0.0299 -0.4469
 6470PP      PP16574  10.964  14.631  13.267  0.1823 -0.1767 -0.0476
 6471PP      PP16575   7.990   0.033   4.213 -0.0090 -0.0058  0.3418
 6472PP      PP16576   5.258   6.825  12.402  0.0007  0.1530  0.1044
 6473PP      PP16577  12.514   6.697  12.162  0.1533  0.1913  0.1139
 6474PP      PP16578   8.586  15.529   8.744  0.3185  0.4950  0.4877
 6475PP      PP16579   8.661   3.478   0.579  0.0658 -0.1269  0.0835
 6476PP      PP16580   2.122   2.829   2.870  0.1353  0.0233  0.0314
 6477PP      PP16581   7.244   2.042   2.426  0.0257  0.1089  0.3388
 6478PP      PP16582  12.785   9.519  13.051  0.0503 -0.0224 -0.1800
 6479PP      PP16583   1.706   3.858   3.162 -0.1624  0.1070 -0.0261
 6480PP      PP16584  11.108  14.888   0.226 -0.1990 -0.2126 -0.1090
 6481PP      PP16585   9.718  12.213  12.170 -0.5724 -0.1294 -0.1913
 6482PP      PP16586   3.418   6.766   4.466 -0.2561 -0.0793  0.1866
 6483PP      PP16587  13.515   4.098   0.005 -0.0377  0.1736  0.0577
 6484PP      PP16588   2.759   3.401  11.468 -0.1039  0.2685 -0.1984
 6485PP      PP16589   2.405  14.601  11.727 -0.1503  0.0305 -0.1883
 6486PP      PP16590  10.099   7.721  10.638  0.0343 -0.2572 -0.1058
 6487PP      PP16591   7.982   4.698  10.689  0.1982 -0.2393 -0.1041
 6488PP      PP16592   8.757   8.713   9.714  0.1266 -0.0683  0.0137
 6489PP      PP16593   5.798  10.011   4.292  0.3550  0.1457  0.0589
 6490PP      PP16594  14.134   3.688  10.828  0.0491 -0.1847 -0.0093
 6491PP      PP16595   4.922   0.666   3.259 -0.0739  0.2189 -0.3527
 6492PP      PP16596  11.125   0.693   8.416  0.3318  0.0590 -0.0978
 6493PP      PP16597   7.375   6.451   2.623  0.1251  0.0573 -0.2442
 6494PP      PP16598   5.684   1.756   8.701 -0.1670  0.1697 -0.1847
 6495PP      PP16599  11.337   0.795   0.605  0.2884  0.1265 -0.2171
 6496PP      PP16600   4.199   6.560   4.915 -0.0746 -0.0439  0.1882
 6497PP      PP16601  14.321   6.292  11.650  0.3518 -0.0092 -0.0429
 6498PP      PP16602   1.830   7.200   2.215  0.2522  0.0750  0.2474
 6499PP      PP16603   8.386  14.989   1.807 -0.0062 -0.1727  0.3707
 6500PP      PP16604  15.764   1.622  12.706  0.0993  0.0331 -0.0358
 6501PP      PP16605   1.262   2.610   1.275  0.2194  0.0667 -0.3066
 6502PP      PP16606   5.870  11.862  10.746  0.0811  0.0373 -0.1364
 6503PP      PP16607  13.189  15.300   3.872  0.2605  0.0310 -0.1914
 6504PP      PP16608   8.741   3.912  11.748 -0.0467  0.2984 -0.1278
 6505PP      PP16609  13.259   1.265  11.623 -0.2245  0.0041 -0.1147
 6506PP      PP16610   4.138  12.599  11.150 -0.2707 -0.0458  0.3247
 6507PP      PP16611  15.747  13.709   0.959  0.1550 -0.0319  0.1653
 6508PP      PP16612   8.603   1.263   0.019 -0.4153  0.0597 -0.4398
 6509PP      PP16613   9.470   6.779   9.648  0.1727  0.1767 -0.0751
 6510PP      PP16614  12.229   2.489   0.354  0.1793 -0.0402  0.1880
 6511PP      PP16615  13.662  14.595   1.790 -0.1450  0.1612  0.1276
 6512PP      PP16616   2.376   9.885   9.588  0.2658 -0.0823 -0.0807
 6513PP      PP16617   1.990  13.136  13.204  0.1468  0.0476 -0.1717
 6514PP      PP16618  11.576   9.764  11.188  0.0064  0.2489  0.0764
 6515PP      PP16619   6.378   5.987   4.727  0.0122 -0.1310 -0.1092
 6516PP      PP16620   6.588   9.640   3.787 -0.1395 -0.0371  0.0182
 6517PP      PP16621   2.481  15.063   1.943 -0.2776 -0.0832  0.0460
 6518PP      PP16622  14.761  13.631   3.494 -0.1184 -0.1621 -0.0434
 6519PP      PP16623  10.371   2.852  12.174  0.1437 -0.0423  0.1552
 6520PP      PP16624  14.929   8.493   2.652  0.1269 -0.0383 -0.1493
 6521PP      PP16625   1.982  12.837   0.113 -0.0892  0.0307  0.2744
 6522PP      PP16626   3.663   2.865   1.090  0.2756 -0.3080  0.0630
 6523PP      PP16627  10.137  13.753  11.918  0.0156 -0.1414 -0.3170
 6524PP      PP16628  10.345   8.577   9.198  0.1716 -0.2047  0.0082
 6525PP      PP16629   7.171   1.918   8.257 -0.0942  0.1132 -0.3209
 6526PP      PP16630  10.904  10.821   3.266  0.1568 -0.0219 -0.0278
 6527PP      PP16631   6.878   1.485   0.563  0.1140 -0.1607  0.4203
 6528PP      PP16632  11.451   3.184  11.491  0.0289  0.2571  0.4925
 6529PP      PP16633   1.965   0.622   4.362  0.0421  0.1757  0.1023
 6530PP      PP16634  13.959   1.950   1.037 -0.1642  0.0415 -0.1153
 6531PP      PP16635  10.485  13.475   0.887  0.1032 -0.0784  0.0412
 6532PP      PP16636   9.726   2.132   3.174 -0.2695  0.1233 -0.0096
 6533PP      PP16637   2.405   6.747   2.956  0.3880 -0.0459  0.1512
 6534PP      PP16638  13.178   8.196   0.749 -0.0372  0.0812 -0.0097
 6535PP      PP16639   7.380   9.815   0.805 -0.0554 -0.1536  0.0265
 6536PP      PP16640   2.455   1.595  12.072  0.4383  0.0523  0.0884
 6537PP      PP16641  15.852   1.558   9.598  0.1126 -0.2239  0.1968
 6538PP      PP16642   4.983  15.350  12.322  0.0272  0.3820 -0.0146
 6539PP      PP16643  14.412   9.560  12.825  0.1939  0.0544  0.2378
 6540PP      PP16644   3.568   2.299   4.876 -0.1624 -0.1104  0.0468
 6541PP      PP16645  12.661   5.492  11.553  0.3948 -0.0345 -0.0354
 6542PP      PP16646  10.186  10.686   8.336 -0.2991 -0.2613  0.1863
 6543PP      PP16647   1.435   6.382   4.686  0.0344 -0.2975 -0.1719
 6544PP      PP16648   0.172  14.223   3.849  0.0939  0.1606 -0.2318
 6545PP      PP16649  15.224   1.857   0.949 -0.0846  0.2137  0.1253
 6546PP      PP16650  13.349   9.956   3.895  0.1587 -0.0512  0.0002
 6547PP      PP16651   8.008   3.137   3.094  0.1024 -0.1670 -0.3640
 6548PP      PP16652   1.124   8.856   0.826 -0.1639 -0.1102 -0.1251
 6549PP      PP16653  14.401   4.929  10.866  0.3528  0.0739  0.4379
 6550PP      PP16654   3.342  11.675  13.332  0.1014 -0.0438 -0.2356
 6551PP      PP16655  13.572  12.547  12.173  0.2418 -0.2387 -0.0515
 6552PP      PP16656  15.129   2.399   2.380 -0.0055  0.3046  0.2658
 6553PP      PP16657  11.934  11.921   0.408  0.2702  0.0077  0.2249
 6554PP      PP16658   3.350   3.989  12.317  0.0811 -0.0911  0.0212
 6555PP      PP16659  13.534  15.082   2.002 -0.1829  0.3851  0.1612
 6556PP      PP16660  10.481   4.640  10.948 -0.0540  0.0671  0.4315
 6557PP      PP16661   1.629   4.426   4.790  0.1008 -0.1856 -0.2801
 6558PP      PP16662   9.781   8.659   0.940 -0.1370 -0.1233 -0.3077
 6559PP      PP16663   7.757  13.278   0.230 -0.1034  0.0449 -0.0288
 6560PP      PP16664   0.611  13.257   1.389  0.1770 -0.1236 -0.1713
 6561PP      PP16665   2.386   0.480  10.249  0.2042  0.0011  0.1913
 6562PP      PP16666   0.260   2.869   3.793 -0.3756 -0.2992 -0.0193
 6563PP      PP16667  15.746  14.123  12.711  0.0771 -0.1868  0.1366
 6564PP      PP16668  12.693   2.970  12.360  0.0819  0.1339 -0.1741
 6565PP      PP16669  14.424  15.768   4.081  0.2906  0.1737  0.0338
 6566PP      PP16670   4.697  14.367   9.829 -0.0872  0.0191  0.0269
 6567PP      PP16671   6.808  13.457  12.930 -0.1450  0.0465  0.0426
 6568PP      PP16672   4.139  13.947   5.337  0.2684  0.0769 -0.3428
 6569PP      PP16673   1.781   9.855   4.510 -0.3845  0.0806  0.0066
 6570PP      PP16674  10.272   4.299  12.132 -0.2923  0.0813  0.1184
 6571PP      PP16675  15.689  15.430  10.848 -0.2877 -0.0198 -0.1745
 6572PP      PP16676   1.019   9.614  11.769  0.1852  0.2310  0.0397
 6573PP      PP16677   4.346  15.484  11.505 -0.2500 -0.0639 -0.3721
 6574PP      PP16678  15.410   7.000  10.664  0.0665  0.0764 -0.0298
 6575PP      PP16679   4.642  15.636   2.117  0.1313  0.1609  0.3007
 6576PP      PP16680   0.375   4.021   3.747  0.1873 -0.1855  0.2072
 6577PP      PP16681   0.366   8.463   1.916 -0.0238  0.2516 -0.3032
 6578PP      PP16682   5.790   2.726   0.962  0.5607 -0.4234 -0.5354
 6579PP      PP16683   7.260  10.017   1.229  0.2476 -0.1507  0.0525
 6580PP      PP16684   2.539   8.442   4.134  0.2340  0.3094  0.2428
 6581PP      PP16685   6.364  15.239  13.080  0.0184 -0.2498  0.0060
 6582PP      PP16686   6.932  15.372   8.836  0.1412 -0.0531 -0.2206
 6583PP      PP16687  13.789   1.995   3.620 -0.0779 -0.1311 -0.1327
 6584PP      PP16688  14.186   2.513  12.974 -0.0914 -0.1948  0.0992
 6585PP      PP16689   8.666   4.909   2.855 -0.2749  0.0655 -0.3219
 6586PP      PP16690   9.907   0.592   2.708  0.0671 -0.0092  0.0979
 6587PP      PP16691   4.660   0.413  12.540 -0.1508  0.1318 -0.3102
 6588PP      PP16692   0.798   3.547  12.040  0.1844 -0.2678  0.2151
 6589PP      PP16693   0.447  11.460   3.026  0.1256 -0.4212  0.0205
 6590PP      PP16694   8.847   6.754   0.877 -0.0119  0.0367  0.3425
 6591PP      PP16695   0.392   5.491  11.153 -0.0665 -0.2001  0.3197
 6592PP      PP16696   5.938   0.898  13.080  0.0302 -0.1463 -0.1700
 6593PP      PP16697   3.492   0.069  10.763 -0.0542  0.3110  0.1283
 6594PP      PP16698  15.503   6.542  13.074 -0.0911  0.0138  0.0299
 6595PP      PP16699   7.328   3.138   9.991  0.2356 -0.0490  0.2878
 6596PP      PP16700  13.244   8.257   8.277 -0.0967 -0.3405 -0.0083
 6597PP      PP16701   2.609   9.960  10.038 -0.0843 -0.2385 -0.1680
 6598PP      PP16702  14.071   5.841  10.242  0.0254 -0.0940  0.0945
 6599PP      PP16703   7.966  11.103   2.868  0.2813 -0.1788 -0.0546
 6600PP      PP16704   4.048   8.561  10.624 -0.1851  0.1842 -0.0617
 6601PP      PP16705  15.580   7.501   2.346  0.2106  0.1986 -0.1834
 6602PP      PP16706   5.818   5.216  11.423 -0.0209  0.1805 -0.0526
 6603PP      PP16707   2.100   1.898   9.285 -0.2865 -0.1772  0.1567
 6604PP      PP16708   1.011  14.985  11.455 -0.1678 -0.1115 -0.2448
 6605PP      PP16709  14.028  11.471   3.431  0.3392  0.1613 -0.2455
 6606PP      PP16710  12.084  12.375   1.395 -0.0320  0.4441 -0.2303
 6607PP      PP16711   9.871   7.557   4.981 -0.2974  0.2338  0.0884
 6608PP      PP16712  13.550   6.144  13.141 -0.3214  0.1080 -0.1192
 6609PP      PP16713   2.284   1.858   0.846 -0.2206 -0.6767  0.1622
 6610PP      PP16714  14.618   6.970   2.517  0.0663 -0.1875  0.3828
 6611PP      PP16715   7.639   5.579   2.167  0.4350 -0.1210  0.0876
 6612PP      PP16716   5.937   7.300  10.894 -0.0647 -0.0231  0.0727
 6613PP      PP16717  10.389   4.085   1.134  0.0231  0.1434  0.1290
 6614PP      PP16718   3.373   8.047   0.609  0.1225 -0.0362  0.2702
 6615PP      PP16719   8.598   0.296   9.460 -0.0608  0.0666 -0.0766
 6616PP      PP16720   1.811   9.182   4.242 -0.0146  0.0777 -0.1648
 6617PP      PP16721  13.090   2.474  11.515 -0.2314 -0.0005  0.0750
 6618PP      PP16722   0.021  11.104  13.451  0.1177  0.0159 -0.2410
 6619PP      PP16723   0.593   7.260  13.014 -0.0848  0.1312  0.1099
 6620PP      PP16724  11.217  12.424   2.030 -0.1622 -0.0474 -0.1278
 6621PP      PP16725  11.889   8.076  10.556 -0.0454 -0.1843 -0.0659
 6622PP      PP16726   6.956   3.212   1.186 -0.2297 -0.1148 -0.0062
 6623PP      PP16727   9.706   4.812   9.245 -0.1571 -0.1468 -0.0237
 6624PP      PP16728   5.446   4.891  10.920  0.1777 -0.2157  0.1555
 6625PP      PP16729  12.557   0.109   2.070  0.0165  0.0944 -0.0296
 6626PP      PP16730   9.474  14.011   9.428  0.1524  0.0598 -0.1138
 6627PP      PP16731   4.447   2.659  11.695 -0.0056  0.1431 -0.0491
 6628PP      PP16732   1.604  10.847   2.895 -0.1950 -0.0817 -0.2828
 6629PP      PP16733   8.258   3.430  11.253 -0.0764  0.0494  0.0763
 6630PP      PP16734   8.683   5.735   9.711  0.1293 -0.0836  0.0031
 6631PP      PP16735   4.232  15.637   9.994  0.2933 -0.1970 -0.4057
 6632PP      PP16736  13.580   4.754   0.986  0.2162 -0.2067  0.1722
 6633PP      PP16737   3.989  11.327   3.189 -0.0525 -0.1489  0.2948
 6634PP      PP16738  10.239   0.764   1.725 -0.1164 -0.0804 -0.2361
 6635PP      PP16739   6.548   0.354   8.889 -0.2901 -0.1575 -0.0809
 6636PP      PP16740   4.978   0.946  10.192 -0.1779 -0.1444  0.1481
 6637PP      PP16741   9.963   8.397  12.836 -0.2913  0.1873 -0.2407
 6638PP      PP16742  13.503  15.638   4.186  0.0205 -0.1007  0.1684
 6639PP      PP16743  10.632  13.922   1.918 -0.0497  0.2919  0.3554
 6640PP      PP16744  15.634  13.157  10.626 -0.3498 -0.1958 -0.0230
 6641PP      PP16745   4.700   7.602   1.677  0.1259 -0.0544  0.0804
 6642PP      PP16746   3.272   7.936   0.049 -0.1826 -0.1231 -0.0099
 6643PP      PP16747  10.326   8.209  11.397  0.3429  0.0849 -0.4130
 6644PP      PP16748   1.002  14.206   9.201  0.0426 -0.2542  0.0955
 6645PP      PP16749  13.312  10.399  10.933 -0.1041  0.1094  0.1886
 6646PP      PP16750   4.553   9.480   2.283  0.0280  0.0036  0.0997
 6647PP      PP16751   4.475  12.428   4.851  0.1425  0.0335 -0.0195
 6648PP      PP16752   1.833  14.198  10.987 -0.0150  0.1997 -0.2984
 6649PP      PP16753   6.013   5.941   4.374 -0.2607  0.2128 -0.0357
 6650PP      PP16754   3.121  13.482  10.727 -0.4280  0.1899 -0.0575
 6651PP      PP16755   6.054   6.013   2.413  0.1811  0.1925 -0.3494
 6652PP      PP16756   1.905  12.694  12.461 -0.0711 -0.1555 -0.0566
 6653PP      PP16757  11.563   9.445   1.089  0.2440  0.1716  0.0992
 6654PP      PP16758   4.686   3.966  12.089 -0.2013  0.0100 -0.1882
 6655PP      PP16759   8.243   5.635  11.691  0.1467 -0.0933  0.1199
 6656PP      PP16760   1.383   4.263   4.249 -0.0010 -0.2618  0.0251
 6657PP      PP16761   7.220  10.776   1.787  0.0467 -0.0343 -0.0389
 6658PP      PP16762  11.091   4.487   9.345  0.0061 -0.0495  0.0107
 6659PP      PP16763   7.857  15.060   9.155  0.0184 -0.0305  0.1329
 6660PP      PP16764  14.405  10.407   2.303 -0.0051 -0.3737  0.1479
 6661PP      PP16765  13.556  15.291   9.558  0.1964 -0.0703  0.0735
 6662PP      PP16766   0.788  11.888   1.870  0.0087  0.0569  0.0401
 6663PP      PP16767   8.109  14.610   9.852 -0.1152 -0.1258 -0.0882
 6664PP      PP16768   9.569   3.579   8.824  0.0419  0.1468  0.0310
 6665PP      PP16769  13.491  12.599   3.995 -0.1766 -0.0094  0.0622
 6666PP      PP16770  14.666   2.370  11.401 -0.0057 -0.0785  0.5182
 6667PP      PP16771   2.872   6.174   1.921 -0.3106  0.0261 -0.0164
 6668PP      PP16772  14.863  12.170  12.266  0.1575  0.2289 -0.1038
 6669PP      PP16773   3.291   5.509  10.843  0.0918 -0.1881 -0.2716
 6670PP      PP16774   6.226  13.558   9.601 -0.3285 -0.0305 -0.3447
 6671PP      PP16775   7.885   8.287   3.642  0.0841  0.1214 -0.0472
 6672PP      PP16776   7.026  10.937   2.214  0.0237 -0.0685  0.1137
 6673PP      PP16777  11.884   1.419   3.665  0.1950  0.3569 -0.0610
 6674PP      PP16778  12.402   3.762  12.813  0.2144  0.1684 -0.2031
 6675PP      PP16779  13.038   4.610  11.248  0.3705 -0.1849  0.0138
 6676PP      PP16780   4.405   2.804   2.728 -0.4927 -0.2830 -0.0511
 6677PP      PP16781  15.619   9.683  10.902 -0.2202 -0.3049 -0.1429
 6678PP      PP16782   6.103   2.098  13.367  0.2335  0.1591  0.0680
 6679PP      PP16783  12.991   3.925   4.542  0.0260  0.0645  0.1955
 6680PP      PP16784   4.117  12.677  13.365 -0.0609  0.4073  0.1585
 6681PP      PP16785   7.507   5.353  11.774  0.1974 -0.2596  0.0383
 6682PP      PP16786   6.649   1.763  11.037  0.1956 -0.2408 -0.1404
 6683PP      PP16787  11.931   5.925   2.880 -0.2080 -0.0044  0.2414
 6684PP      PP16788  15.384   7.808   6.015  0.3149  0.1524  0.1276
 6685PP      PP16789  10.935  15.601   0.682 -0.1881  0.2113 -0.1386
 6686PP      PP16790   9.581   2.136  13.017  0.2662 -0.0072 -0.3125
 6687PP      PP16791   1.450  10.345  12.938  0.3418 -0.3841 -0.0148
 6688PP      PP16792   8.933  13.751   3.534  0.2680  0.1012 -0.1703
 6689PP      PP16793  14.947   5.897   0.573 -0.2850 -0.1735 -0.0048
 6690PP      PP16794   8.082   2.882   1.718 -0.1600 -0.0878  0.1707
 6691PP      PP16795   3.292  13.974   3.003  0.0029  0.0452  0.1819
 6692PP      PP16796   5.842   0.383   3.640 -0.0441 -0.2542 -0.0726
 6693PP      PP16797   1.957   2.201  10.952 -0.0145  0.0283  0.0410
 6694PP      PP16798   6.626   9.425   2.381  0.3570  0.0280 -0.1843
 6695PP      PP16799   4.295   2.274  11.174 -0.4634  0.1446 -0.2572
 6696PP      PP16800   8.284   8.138   0.290 -0.3842 -0.2774  0.1843
 6697PP      PP16801   2.978  13.778   9.223  0.3118  0.1858  0.1905
 6698PP      PP16802   5.169   6.340   0.756 -0.1372  0.1921  0.0499
 6699PP      PP16803   5.200   0.446   1.121 -0.0719  0.0180 -0.1835
 6700PP      PP16804   9.887  12.199  13.243 -0.1436 -0.3687  0.2272
 6701PP      PP16805   1.663   1.057   2.345 -0.0772  0.0546 -0.1237
 6702PP      PP16806  13.287  15.695  10.707 -0.2270  0.0615  0.1800
 6703PP      PP16807   3.818   3.176  11.794  0.0721  0.0322 -0.0753
 6704PP      PP16808   3.080   8.319   2.460  0.4079 -0.1093  0.1665
 6705PP      PP16809   6.930  13.726  12.377  0.1385  0.1337 -0.1114
 6706PP      PP16810   9.104   2.792  10.426  0.6160 -0.1788 -0.1821
 6707PP      PP16811  11.454  14.033   8.910  0.0325 -0.1647 -0.0334
 6708PP      PP16812   6.764   0.653   2.328  0.0486 -0.2704 -0.1455
 6709PP      PP16813  13.614   5.833   3.698  0.1538 -0.0089 -0.2205
 6710PP      PP16814  11.857   0.210  11.829 -0.1845 -0.3173 -0.1528
 6711PP      PP16815   4.157   3.559   3.046 -0.1657 -0.0445 -0.1155
 6712PP      PP16816   7.772   8.913   1.630  0.2478  0.1270 -0.2763
 6713PP      PP16817  11.704   8.660   9.764  0.0476  0.0067 -0.2394
 6714PP      PP16818   7.008  15.089   9.297 -0.1354  0.1435  0.2577
 6715PP      PP16819  13.310  12.272   4.317 -0.1305 -0.1266 -0.1075
 6716PP      PP16820   2.671   0.278   4.083 -0.1246  0.0386 -0.3165
 6717PP      PP16821   4.095  11.761   0.240  0.1081  0.0448  0.0131
 6718PP      PP16822   1.456  10.633   0.919  0.2113  0.0629  0.1050
 6719PP      PP16823   8.875   5.691  10.259 -0.3422  0.0806 -0.1120
 6720PP      PP16824  14.665   6.973   4.623  0.0996 -0.0594 -0.2521
 6721PP      PP16825   4.519  12.504   8.377 -0.2340  0.0212  0.2694
 6722PP      PP16826   8.080  11.096   3.750 -0.0942  0.0812 -0.1738
 6723PP      PP16827   3.011   4.064  13.222 -0.0295 -0.1295  0.1390
 6724PP      PP16828   7.366  13.013  12.268  0.2580 -0.1607  0.0882
 6725PP      PP16829   3.707   2.061   2.703 -0.0769 -0.1621 -0.2618
 6726PP      PP16830  14.248   8.682  13.110 -0.2510 -0.2059  0.1144
 6727PP      PP16831  12.418   9.993   2.748 -0.0873 -0.1035  0.0632
 6728PP      PP16832  13.677   4.647   9.839  0.2713 -0.1797 -0.0203
 6729PP      PP16833  10.173   7.295   4.652  0.0181 -0.0530 -0.0934
 6730PP      PP16834   0.793   4.797  10.000  0.0204  0.2508  0.0476
 6731PP      PP16835   7.464  12.917   2.574 -0.2350  0.2078  0.1556
 6732PP      PP16836  11.555  14.868   3.259  0.2050 -0.3114  0.1786
 6733PP      PP16837   1.111  14.213   1.656  0.3674 -0.2293 -0.2230
 6734PP      PP16838   9.617   7.552  10.894  0.0443 -0.1794 -0.2960
 6735PP      PP16839  15.749  15.111   9.303  0.0701  0.0774 -0.1669
 6736PP      PP16840  13.384  13.416  11.072  0.1899 -0.1027  0.0547
 6737PP      PP16841   4.049   5.275  10.931  0.4839  0.0918 -0.0613
 6738PP      PP16842   1.488   7.502  12.573  0.1396 -0.1700  0.4417
 6739PP      PP16843  13.739   3.020  12.656  0.1418  0.4285  0.2740
 6740PP      PP16844  10.298  12.176   8.671 -0.0013 -0.1862  0.0429
 6741PP      PP16845   2.536   0.286   0.248  0.1908 -0.2161  0.1787
 6742PP      PP16846   1.731   9.691  11.238 -0.2919 -0.2276  0.1892
 6743PP      PP16847  11.402  14.119   1.226  0.0356 -0.1912 -0.1851
 6744PP      PP16848   8.186   2.645   3.820 -0.1682  0.1760 -0.1562
 6745PP      PP16849  15.789   5.780   3.108  0.1195  0.2416  0.3625
 6746PP      PP16850  10.696  12.876   8.174  0.0527  0.2803  0.0180
 6747PP      PP16851  10.931  13.964   8.611 -0.0978 -0.2502 -0.1090
 6748PP      PP16852  14.315   2.269   0.143 -0.0680 -0.2636  0.1881
 6749PP      PP16853   8.032   0.440  11.877  0.0327  0.2891  0.0374
 6750PP      PP16854  13.308   4.850   9.239 -0.3189 -0.2453  0.0159
 6751PP      PP16855   5.829   4.847   2.629  0.0123  0.1504  0.0654
 6752PP      PP16856  14.096   5.161   1.447  0.1667 -0.0787  0.0685
 6753PP      PP16857   8.266  11.666   1.251  0.0151 -0.1887  0.0605
 6754PP      PP16858   7.192  11.773   0.325 -0.0591 -0.2419  0.1824
 6755PP      PP16859   7.520  12.022   1.167 -0.0081 -0.0831  0.0024
 6756PP      PP16860   1.923  14.437   0.407  0.2224 -0.1795  0.1130
 6757PP      PP16861  10.520  12.930  10.394  0.4075 -0.2739  0.2104
 6758PP      PP16862  11.821   5.888   2.364  0.0400 -0.1818  0.0482
 6759PP      PP16863   4.381  13.761  11.702  0.0845  0.0578  0.3960
 6760PP      PP16864   0.282   4.389   1.387 -0.0325 -0.0460  0.0537
 6761PP      PP16865   7.410   4.823   8.826 -0.0709 -0.0761  0.3070
 6762PP      PP16866   5.159   9.403  11.167  0.1956  0.0502  0.0607
 6763PP      PP16867   7.207  10.079  10.320 -0.1997 -0.0863 -0.0147
 6764PP      PP16868  14.733   7.203  12.842 -0.0283 -0.5309  0.3190
 6765PP      PP16869   5.676  11.717   2.956  0.0575  0.0653 -0.1617
 6766PP      PP16870  13.444   6.299   3.481  0.0479 -0.0358 -0.1784
 6767PP      PP16871   3.996   3.969   2.836 -0.0344  0.1017  0.0899
 6768PP      PP16872  15.866  14.056  11.733 -0.2751 -0.2165 -0.1684
 6769PP      PP16873  12.673   6.388  12.993 -0.1340 -0.3208  0.1404
 6770PP      PP16874  10.855   7.282   2.302 -0.0169 -0.2006  0.1647
 6771PP      PP16875   7.258   8.614  10.510 -0.0600  0.2121  0.0611
 6772PP      PP16876   4.526   7.940  11.412  0.0333 -0.0720  0.0691
 6773PP      PP16877   9.131   4.987   1.435  0.1615 -0.1800  0.1374
 6774PP      PP16878   9.005   5.684  12.300 -0.2331  0.1566  0.0677
 6775PP      PP16879  13.065   5.304   9.239 -0.0220 -0.0728  0.2722
 6776PP      PP16880  14.273  11.812  12.890 -0.0972  0.1005  0.1012
 6777PP      PP16881   3.097   1.285   2.832  0.0038 -0.2355 -0.0997
 6778PP      PP16882  13.926   6.464   2.924  0.2987  0.2912 -0.0330
 6779PP      PP16883  12.777   5.297   1.521 -0.5523 -0.3226 -0.3858
 6780PP      PP16884   8.515  12.471   4.164 -0.0456 -0.0642  0.0687
 6781PP      PP16885  10.806   6.342   3.576 -0.0597 -0.1610 -0.0157
 6782PP      PP16886  10.836   6.265   2.336  0.2437 -0.1742 -0.0518
 6783PP      PP16887  14.168   3.097   1.747 -0.2011  0.1650 -0.1023
 6784PP      PP16888  12.403   1.370  12.281  0.0545  0.1348 -0.1148
 6785PP      PP16889   8.854   5.136  10.268  0.1107  0.2100  0.1536
 6786PP      PP16890  14.659   0.265   9.583  0.1306 -0.0156 -0.1181
 6787PP      PP16891   5.147   2.163   2.931  0.2886  0.0781  0.0313
 6788PP      PP16892   8.156  11.554   2.763 -0.1879  0.2141  0.1866
 6789PP      PP16893   2.257  12.788   2.893 -0.3433 -0.0565  0.2108
 6790PP      PP16894   2.240   7.049   0.360  0.0471 -0.0133  0.1126
 6791PP      PP16895  15.227  13.026   8.426 -0.1046 -0.0457 -0.2507
 6792PP      PP16896   9.275   7.806   0.448 -0.1141  0.0021 -0.1054
 6793PP      PP16897   5.074   8.029   0.482 -0.0972 -0.0434 -0.0344
 6794PP      PP16898   3.601  14.479  11.259 -0.0926 -0.3972 -0.0062
 6795PP      PP16899   0.844   3.860   2.887 -0.2129  0.2038  0.3014
 6796PP      PP16900   7.417   5.851  13.301  0.1960  0.1774 -0.2138
 6797PP      PP16901   0.475  11.794   0.154 -0.0079 -0.2838  0.1880
 6798PP      PP16902   6.351   0.732   1.961 -0.2499  0.2325  0.2182
 6799PP      PP16903   1.018   4.422  10.402  0.1064 -0.1059 -0.0927
 6800PP      PP16904   6.376   2.311   2.717  0.2680 -0.1963 -0.0646
 6801PP      PP16905  13.775   2.925   0.887 -0.3888 -0.0345  0.0230
 6802PP      PP16906   9.267  12.876   9.267 -0.0549  0.1097  0.1268
 6803PP      PP16907   7.290   5.380   8.815  0.0901 -0.0008  0.3396
 6804PP      PP16908  15.051  12.411   0.393  0.0715 -0.2676 -0.0077
 6805PP      PP16909   6.685  14.054   9.070  0.0533  0.0891  0.0969
 6806PP      PP16910   3.564   7.859  12.959  0.0081  0.5315 -0.1147
 6807PP      PP16911   3.266  11.722   0.380  0.0629 -0.0872 -0.0255
 6808PP      PP16912   3.378   0.559  11.907  0.0343  0.0594  0.2562
 6809PP      PP16913   1.506  10.686   4.215  0.2444  0.0847 -0.0243
 6810PP      PP16914  14.712  10.754   3.956 -0.3483 -0.3117 -0.2189
 6811PP      PP16915   8.430  10.311   4.572  0.1064  0.2764  0.0347
 6812PP      PP16916  10.910   3.546   0.500 -0.2371 -0.1786  0.0599
 6813PP      PP16917   5.078  12.273   9.061 -0.1958  0.0705 -0.1372
 6814PP      PP16918   2.779  15.872   2.368  0.1282 -0.1001  0.2586
 6815PP      PP16919   6.387   4.131   0.144  0.2465  0.2044 -0.3316
 6816PP      PP16920   4.045   9.770  11.644 -0.0754  0.1307  0.1857
 6817PP      PP16921  12.048   2.314  12.592 -0.1528  0.2739  0.0165
 6818PP      PP16922   7.293  11.365  11.921 -0.0023  0.2731 -0.0106
 6819PP      PP16923  15.435   8.686   2.355  0.1709  0.2149  0.3342
 6820PP      PP16924  12.783   9.139   0.576 -0.0519  0.2254  0.0632
 6821PP      PP16925   3.680   1.690   4.065  0.1942 -0.0884 -0.1515
 6822PP      PP16926  13.193   6.848   1.700 -0.1883 -0.0713  0.0547
 6823PP      PP16927   0.977  15.038   9.082 -0.0126  0.0589 -0.2647
 6824PP      PP16928  15.845  14.128   0.006  0.2753 -0.0025  0.2089
 6825PP      PP16929   2.584  14.740   4.031 -0.2808  0.0822  0.4336
 6826PP      PP16930  14.816   9.290  10.557 -0.0155  0.1582 -0.2546
 6827PP      PP16931   1.411   7.860   2.595 -0.1198 -0.2407  0.0454
 6828PP      PP16932   7.856   7.813   1.759 -0.2613 -0.1438 -0.2061
 6829PP      PP16933   5.273   0.978  11.784 -0.3474 -0.1138  0.2794
 6830PP      PP16934   6.046   0.615  12.222 -0.0076 -0.0117 -0.0922
 6831PP      PP16935   4.275   9.391  10.065  0.3522 -0.1687 -0.0509
 6832PP      PP16936  15.295  12.203   2.872 -0.2705  0.2127 -0.2529
 6833PP      PP16937   2.570  11.145   9.519  0.4170 -0.0074  0.2916
 6834PP      PP16938   7.130   1.939   4.005 -0.3302 -0.2732  0.0477
 6835PP      PP16939   8.122   6.870   4.062 -0.2731  0.0421 -0.1250
 6836PP      PP16940   9.622   2.728   0.336  0.0770 -0.1978 -0.1248
 6837PP      PP16941  10.308  14.117  10.058  0.1263  0.1401 -0.1809
 6838PP      PP16942   3.335  15.775  13.202  0.0689  0.2578  0.5312
 6839PP      PP16943  15.877   4.174   0.573  0.1597  0.2710 -0.0415
 6840PP      PP16944   9.741  11.847   1.440 -0.1727  0.0707 -0.2446
 6841PP      PP16945   5.419   5.395  11.005 -0.0891 -0.3604  0.0626
 6842PP      PP16946  10.288   6.358   9.344 -0.0481 -0.0474 -0.1123
 6843PP      PP16947   3.492  15.605   3.432 -0.0531 -0.0355 -0.1496
 6844PP      PP16948   0.342   6.102   9.774 -0.2627  0.2278 -0.0664
 6845PP      PP16949   7.071  13.052   1.615  0.2355 -0.1455 -0.2012
 6846PP      PP16950  11.223   7.628  13.436 -0.1801 -0.1992 -0.4297
 6847PP      PP16951   7.593  11.234   8.875  0.1109 -0.1902 -0.3482
 6848PP      PP16952   3.517   5.328  10.433  0.1768  0.1748 -0.0595
 6849PP      PP16953  11.833  14.153  11.468  0.1308 -0.1386 -0.1149
 6850PP      PP16954  14.676  10.252   2.726 -0.4575 -0.2428 -0.1793
 6851PP      PP16955   7.009  13.083   4.633  0.0578 -0.0158  0.2671
 6852PP      PP16956   9.712   3.922   3.267  0.1237 -0.0437  0.2156
 6853PP      PP16957   4.807  12.617  12.087 -0.1735 -0.1128 -0.1611
 6854PP      PP16958   0.317  13.721   9.263 -0.1466  0.0370 -0.1240
 6855PP      PP16959   9.924   8.677   0.377  0.0018 -0.3445 -0.1212
 6856PP      PP16960  14.871   7.834  12.794  0.0143  0.0459 -0.0797
 6857PP      PP16961   9.355   4.516   9.582  0.0489  0.1219 -0.5188
 6858PP      PP16962  13.315   4.882  12.076 -0.0828  0.0191 -0.0636
 6859PP      PP16963   5.406  10.360  10.875 -0.2886 -0.2917  0.2465
 6860PP      PP16964  13.822  11.682   2.134 -0.1067  0.1483  0.3150
 6861PP      PP16965   7.202   5.932  11.553 -0.0317  0.1100 -0.1810
 6862PP      PP16966   5.831   2.754   3.915  0.0667 -0.1900 -0.2895
 6863PP      PP16967   1.204   4.038   0.924  0.2571  0.0072  0.0411
 6864PP      PP16968  12.644  10.506   9.513 -0.1118  0.0908  0.0077
 6865PP      PP16969   8.619   3.841   2.695  0.1035 -0.2627 -0.2457
 6866PP      PP16970  10.715  15.770   9.133 -0.1877  0.0601  0.0783
 6867PP      PP16971   6.259   8.677   2.412  0.0718  0.0420 -0.0973
 6868PP      PP16972   4.689  11.666   2.849  0.2302  0.0732  0.2329
 6869PP      PP16973   5.402  13.016   4.178  0.2302 -0.3204 -0.3081
 6870PP      PP16974   1.666  14.198  13.039  0.0987  0.3337  0.0955
 6871PP      PP16975   8.043   5.363   3.940  0.4286 -0.1463  0.0028
 6872PP      PP16976   4.211   7.379   2.118 -0.0949  0.2635 -0.0785
 6873PP      PP16977  14.393  12.601   2.849 -0.1155 -0.0958 -0.0110
 6874PP      PP16978   4.251   7.015  12.990  0.1888 -0.3685  0.1024
 6875PP      PP16979  10.079  15.389   0.894 -0.0449  0.0317 -0.3445
 6876PP      PP16980   9.453   4.854   0.631  0.3297 -0.3069 -0.0558
 6877PP      PP16981  13.676  10.048  10.989  0.5151 -0.0749  0.0128
 6878PP      PP16982  12.966   6.734  12.380  0.0609 -0.0924  0.1264
 6879PP      PP16983   4.664   7.290   0.062 -0.0410  0.0286 -0.3852
 6880PP      PP16984  11.737  13.091  11.108  0.0549 -0.1660  0.4569
 6881PP      PP16985   2.176   9.636   1.371 -0.0380  0.0380  0.0791
 6882PP      PP16986   2.433  12.574   9.270 -0.2216 -0.0449 -0.2136
 6883PP      PP16987   4.053   4.352   9.690  0.0207 -0.2466 -0.2791
 6884PP      PP16988   1.709   4.431   9.331 -0.2846 -0.0133  0.0783
 6885PP      PP16989  12.356  13.917   0.136 -0.1841  0.0111  0.1323
 6886PP      PP16990   8.406   2.886  11.031  0.2534 -0.2506  0.0656
 6887PP      PP16991  15.443  12.608   8.786  0.3249 -0.0717  0.0682
 6888PP      PP16992   0.153   1.504   1.168 -0.0678  0.1967 -0.2254
 6889PP      PP16993   6.211   0.872  10.746  0.1916 -0.2369  0.1917
 6890PP      PP16994  13.542   3.692  10.687 -0.1504  0.3478  0.3632
 6891PP      PP16995  15.353   3.770  11.307  0.2015  0.0359  0.0617
 6892PP      PP16996   0.031  11.339  10.886  0.0487 -0.1404 -0.1622
 6893PP      PP16997   6.761  14.683   2.073  0.4907 -0.0211  0.0315
 6894PP      PP16998  10.858   6.382   0.546  0.2325  0.1679 -0.0209
 6895PP      PP16999   4.513   2.472   9.028 -0.1270  0.0795  0.2616
 6896PP      PP17000   1.447   5.590   0.342 -0.0405  0.3636 -0.1003
 6897PP      PP17001   1.348  11.421  11.886  0.1241 -0.3327  0.4779
 6898PP      PP17002  14.276   9.217   4.485 -0.2740 -0.2076 -0.0657
 6899PP      PP17003   2.644  15.643  12.478  0.0737  0.2436  0.1453
 6900PP      PP17004   8.455   4.648   0.798 -0.2699 -0.0013 -0.1214
 6901PP      PP17005   2.497  11.816  12.863  0.0124 -0.0027 -0.1344
 6902PP      PP17006  14.926   2.559  10.119  0.0281  0.3293  0.0809
 6903PP      PP17007   7.271  10.422   3.935  0.0500 -0.1436  0.0101
 6904PP      PP17008  15.413   2.682   9.293 -0.1230  0.5287 -0.1293
 6905PP      PP17009  11.271   1.178   0.043 -0.1238 -0.2183  0.0433
 6906PP      PP17010   7.957  13.313  10.613  0.0768  0.1529  0.0477
 6907PP      PP17011   6.142  12.112  12.872 -0.0957  0.4071 -0.3958
 6908PP      PP17012   8.555  14.937   4.259  0.4900  0.0523 -0.0031
 6909PP      PP17013   1.706   7.853   1.641 -0.6340  0.0461 -0.0738
 6910PP      PP17014   6.254  13.348   9.100 -0.0187 -0.3344  0.2271
 6911PP      PP17015   9.692   9.300  10.234  0.0452 -0.0267 -0.1378
 6912PP      PP17016   6.168  14.449   9.043  0.2397  0.1517 -0.3507
 6913PP      PP17017  11.539   9.855   2.834  0.0765 -0.0331  0.3054
 6914PP      PP17018   7.272   4.859   2.524  0.1425 -0.3924  0.2359
 6915PP      PP17019  11.556   3.856   8.837  0.0985  0.0399  0.0167
 6916PP      PP17020   7.719   5.751  12.565 -0.2594 -0.0191 -0.2424
 6917PP      PP17021   8.733  10.807   0.143 -0.1117  0.1833 -0.0927
 6918PP      PP17022  12.463  15.879   9.625  0.0668  0.1504 -0.1097
 6919PP      PP17023   6.642   1.002   3.604 -0.0904 -0.1253 -0.2407
 6920PP      PP17024   5.586  11.610   4.815  0.0194 -0.1751  0.0023
 6921PP      PP17025   4.896   1.144   2.481 -0.1796 -0.1218 -0.0276
 6922PP      PP17026   2.812   3.972  11.574  0.3335 -0.1671  0.0240
 6923PP      PP17027   0.516   7.709   0.320 -0.0909  0.3722 -0.1124
 6924PP      PP17028   6.166  12.162   2.091  0.0711 -0.3297 -0.3921
 6925PP      PP17029   8.267   9.757   1.468 -0.3540  0.1726 -0.1943
 6926PP      PP17030  14.874   1.670   9.858 -0.0420 -0.0704 -0.0293
 6927PP      PP17031   9.574   2.783   3.985  0.1474 -0.0859 -0.0197
 6928PP      PP17032   5.854   5.601   2.065  0.0339 -0.1819 -0.0820
 6929PP      PP17033  10.983  10.032   1.970 -0.1283  0.2331  0.1390
 6930PP      PP17034  13.902   3.215  11.552 -0.1287  0.0072  0.0641
 6931PP      PP17035   1.017   2.703   0.852 -0.1546  0.0741 -0.0365
 6932PP      PP17036   9.828   6.295  11.177 -0.2621 -0.0311  0.0049
 6933PP      PP17037   9.954   4.449  11.771 -0.0751 -0.2043  0.2207
 6934PP      PP17038   4.413   4.798   2.715  0.0650  0.0300  0.1630
 6935PP      PP17039   7.592   8.482   2.063 -0.0840  0.0005 -0.0927
 6936PP      PP17040   1.317   3.628  11.764 -0.2413  0.1577 -0.1224
 6937PP      PP17041   3.049  10.728   0.199 -0.0627 -0.0905 -0.0233
 6938PP      PP17042  11.739   3.852  11.085  0.1608  0.1236 -0.0817
 6939PP      PP17043  14.763   5.379  12.936 -0.2429 -0.0989  0.2560
 6940PP      PP17044   0.390   2.808  11.432  0.0343  0.1552 -0.0197
 6941PP      PP17045   3.975  14.113  10.567 -0.0478  0.1077  0.0665
 6942PP      PP17046   1.078  15.689   2.643  0.1062  0.0699 -0.2388
 6943PP      PP17047   0.200   7.814   4.768 -0.3037  0.4958  0.0112
 6944PP      PP17048  12.918  12.967  13.367 -0.1746  0.4730 -0.1488
 6945PP      PP17049  12.396   9.287   9.614  0.1388  0.1827  0.1906
 6946PP      PP17050  12.292  13.588  11.685 -0.2734  0.0748 -0.3103
 6947PP      PP17051   5.043  10.522   2.966 -0.1863  0.1978 -0.0298
 6948PP      PP17052  15.562   2.949   9.730  0.2804 -0.1604  0.0836
 6949PP      PP17053   9.206   6.296   4.896 -0.0972  0.2404 -0.0578
 6950PP      PP17054   7.178   8.858  11.684  0.3372  0.0389  0.2359
 6951PP      PP17055   7.150   5.187   1.622  0.1378  0.0403 -0.2488
 6952PP      PP17056   9.960   5.165   9.692 -0.1076  0.1463  0.0697
 6953PP      PP17057   8.331  11.611   2.274 -0.1751 -0.0443  0.2421
 6954PP      PP17058   7.599   8.548   9.379  0.0654  0.2221  0.3120
 6955PP      PP17059   8.816  12.616   1.809  0.3047 -0.0369  0.0531
 6956PP      PP17060  15.856   8.271  13.314 -0.3684  0.1799  0.2794
 6957PP      PP17061   9.772   8.073  10.839 -0.1020  0.1743  0.0780
 6958PP      PP17062  12.984  12.833  12.184  0.1053 -0.0801 -0.0405
 6959PP      PP17063   3.727  11.595  12.383 -0.3616 -0.0321 -0.2978
 6960PP      PP17064   5.641   2.468  11.777 -0.1164 -0.2130 -0.1460
 6961PP      PP17065  13.953   7.582   9.710  0.1356  0.1420 -0.3249
 6962PP      PP17066   5.797   2.714   3.189  0.0238  0.0597 -0.0945
 6963PP      PP17067   0.162  12.905   9.803  0.1877 -0.1795  0.1435
 6964PP      PP17068  15.320   0.969   3.444  0.1293  0.1815 -0.2030
 6965PP      PP17069   5.201   7.507   0.324  0.3341 -0.2615 -0.3780
 6966PP      PP17070  12.432   5.866  10.749 -0.1054  0.0534  0.2436
 6967PP      PP17071  11.329  12.581  11.890  0.0973 -0.3099  0.1083
 6968PP      PP17072   4.916  14.283   1.894  0.1818 -0.2038  0.1347
 6969PP      PP17073   8.076   1.493   2.095  0.1203 -0.1372 -0.0403
 6970PP      PP17074   1.268   4.575   0.112  0.1792  0.2235 -0.0009
 6971PP      PP17075   2.652   7.512   1.948 -0.1246 -0.2256  0.0649
 6972PP      PP17076  11.421   7.852  13.050  0.1044  0.1957 -0.0521
 6973PP      PP17077   3.051   3.922   9.403  0.1276 -0.0070  0.1689
 6974PP      PP17078   4.840  13.974  10.457 -0.0314 -0.0859  0.1539
 6975PP      PP17079  14.969  14.813  12.419 -0.0771 -0.2016 -0.2395
 6976PP      PP17080  11.418  13.907  11.100  0.1393  0.0771 -0.1319
 6977PP      PP17081   5.272   9.697  12.128 -0.2196 -0.0927  0.0618
 6978PP      PP17082   8.147   9.603  11.058 -0.1663  0.1708 -0.1575
 6979PP      PP17083   3.606   7.353  10.620  0.2653 -0.2754 -0.0958
 6980PP      PP17084   5.948   5.737  10.929  0.1546 -0.0054  0.2669
 6981PP      PP17085   0.665   1.813  11.245 -0.0532 -0.2128 -0.0226
 6982PP      PP17086  14.527  12.486   8.912  0.2395 -0.1216  0.1599
 6983PP      PP17087   4.336  10.730  13.317 -0.0315  0.2373 -0.0133
 6984PP      PP17088  15.496  14.766   3.677  0.2532  0.1987 -0.4369
 6985PP      PP17089   7.664  10.956  11.181  0.1908 -0.0638  0.0285
 6986PP      PP17090   6.731   0.419   4.144 -0.2069  0.1056  0.0911
 6987PP      PP17091  11.604   4.334  11.914 -0.1138 -0.2998  0.2105
 6988PP      PP17092  11.002   5.059   3.183 -0.0565 -0.1078 -0.3917
 6989PP      PP17093  11.745   3.525  12.756 -0.2842 -0.0660 -0.0971
 6990PP      PP17094   1.557   5.218   1.954  0.0959  0.1749  0.3219
 6991PP      PP17095   7.439   2.942  12.612 -0.0265  0.3298  0.1580
 6992PP      PP17096   9.284   3.104  12.508  0.1274 -0.0776  0.3317
 6993PP      PP17097   3.244  10.227  12.900  0.0697 -0.0797 -0.0902
 6994PP      PP17098   8.727   8.132   9.115 -0.0685 -0.0843  0.1296
 6995PP      PP17099   3.854  15.813  12.506  0.2327  0.0673 -0.4433
 6996PP      PP17100   6.862  13.550   0.565 -0.1112 -0.3266  0.0451
 6997PP      PP17101  11.756   5.997   1.853 -0.1450 -0.0182 -0.0997
 6998PP      PP17102  13.947   1.376   1.959 -0.0475  0.0153 -0.0317
 6999PP      PP17103   8.594   5.972   4.082  0.3808  0.0468 -0.3334
 7000PP      PP17104  11.873   0.595  12.152 -0.0882 -0.2742  0.0531
 7001PP      PP17105   4.133  13.167   2.084  0.4830 -0.0714  0.2587
 7002PP      PP17106   6.708   5.664   4.007  0.4765  0.1267 -0.1012
 7003PP      PP17107   7.180  14.105  11.106  0.0234  0.1687 -0.0976
 7004PP      PP17108   3.889  11.855   9.738  0.0221  0.1222  0.1775
 7005PP      PP17109   2.055   0.364  10.946 -0.2306 -0.3446  0.1918
 7006PP      PP17110  15.867  14.461   0.533  0.3486 -0.0533 -0.1168
 7007PP      PP17111  13.020  11.382   2.319  0.1939  0.0189 -0.0561
 7008PP      PP17112   4.612   0.516   0.938  0.2753  0.2098 -0.0582
 7009PP      PP17113   6.538   1.067   2.347  0.3227  0.0349  0.1198
 7010PP      PP17114  14.913   9.593   8.501 -0.1819 -0.1398 -0.2533
 7011PP      PP17115  13.652  10.776   1.740 -0.1590 -0.0356 -0.2392
 7012PP      PP17116   3.513  13.800  13.416 -0.2777 -0.1188  0.1102
 7013PP      PP17117   3.427   1.895   9.577  0.3945  0.1309 -0.0105
 7014PP      PP17118   6.724   2.889  10.520  0.0080  0.1613  0.0130
 7015PP      PP17119   4.421   7.549   2.537 -0.0033 -0.2479 -0.2108
 7016PP      PP17120  15.797   3.295   0.424  0.1750  0.1229  0.0804
 7017PP      PP17121  10.767   5.156  10.116 -0.1209 -0.0465  0.2278
 7018PP      PP17122  15.748  15.593   9.769 -0.2874 -0.0892 -0.1151
 7019PP      PP17123   0.464   8.684   2.370  0.2236 -0.0379  0.0429
 7020PP      PP17124  12.237   3.654   1.886 -0.2548 -0.2877 -0.0702
 7021PP      PP17125   1.273   3.141   9.775  0.1460 -0.1297 -0.1574
 7022PP      PP17126   4.511  12.905   1.079 -0.1074  0.2962 -0.2703
 7023PP      PP17127   2.272  15.054  12.980  0.0377  0.1066 -0.0330
 7024PP      PP17128   7.718   0.211  10.561 -0.2767 -0.1940 -0.1176
 7025PP      PP17129  10.310   0.494  12.871  0.2891 -0.0801  0.1831
 7026PP      PP17130   9.521  13.279   1.358  0.1974 -0.0122  0.4013
 7027PP      PP17131  11.668   0.934   3.647  0.0130 -0.2295  0.1481
 7028PP      PP17132   5.014   6.310   2.114 -0.0918  0.3669 -0.0299
 7029PP      PP17133   4.310  14.514   1.292 -0.2907  0.0167  0.1036
 7030PP      PP17134  15.745   8.229   4.680  0.0305 -0.3240 -0.0866
 7031PP      PP17135  13.159  11.188  11.384  0.0263 -0.1201  0.1604
 7032PP      PP17136   9.313   3.966   9.727 -0.1092 -0.0303  0.0511
 7033PP      PP17137  14.892   8.755   4.862  0.0235 -0.0021 -0.2795
 7034PP      PP17138   6.758  12.310  11.651 -0.0758  0.2137  0.0731
 7035PP      PP17139   8.090  12.490  12.112 -0.2115  0.1204  0.3346
 7036PP      PP17140   4.998   5.089   1.387 -0.1559  0.4632  0.2195
 7037PP      PP17141  15.300   2.284   1.386  0.2296 -0.2656 -0.0991
 7038PP      PP17142  10.507  13.440  10.539  0.0163  0.0519  0.0875
 7039PP      PP17143   2.372   3.934  12.076 -0.2269  0.0713  0.1544
 7040PP      PP17144  15.793   8.526   1.623  0.2938 -0.2342 -0.0686
 7041PP      PP17145   1.619  15.396   3.785 -0.0269  0.2101  0.0586
 7042PP      PP17146   4.718   3.769   1.469  0.0733 -0.2080  0.1775
 7043PP      PP17147   6.023   3.155   0.929  0.2078 -0.3229  0.2219
 7044PP      PP17148  14.309  14.382   1.469  0.2041  0.3436  0.0570
 7045PP      PP17149  10.956  11.791  12.340 -0.2577  0.2354  0.1159
 7046PP      PP17150  11.977  10.261   2.834 -0.0487 -0.1895 -0.0483
 7047PP      PP17151  11.227   5.006   1.988 -0.0734 -0.1261  0.0403
 7048PP      PP17152  13.183   5.605  10.356  0.3437  0.0121  0.0015
 7049PP      PP17153  14.918   4.300   1.873 -0.1500 -0.1715  0.0383
 7050PP      PP17154   0.056   2.218   4.470  0.1609 -0.0353  0.3060
 7051PP      PP17155  15.397   9.030  12.385  0.1698  0.1238  0.2036
 7052PP      PP17156   0.674  15.289  12.077 -0.0409  0.0160  0.2587
 7053PP      PP17157   9.971   0.651  12.522 -0.1014 -0.0208  0.1264
 7054PP      PP17158   1.717  11.794   9.110  0.0392 -0.1526 -0.1235
 7055PP      PP17159  11.820   0.342  10.257 -0.2874 -0.0964  0.4020
 7056PP      PP17160   6.323   6.818   4.325  0.3997 -0.0811  0.2506
 7057PP      PP17161  14.205  13.932   2.800 -0.2463 -0.0705  0.1601
 7058PP      PP17162   7.973   5.386  11.203  0.3136  0.0010 -0.1399
 7059PP      PP17163   6.293   2.471   3.954  0.1061 -0.0439 -0.2166
 7060PP      PP17164   6.967   8.683   1.075 -0.0392 -0.1747  0.1800
 7061PP      PP17165   8.976   2.702  12.397  0.2284 -0.3388 -0.1070
 7062PP      PP17166  13.211   2.084   9.215  0.1566  0.0317  0.0332
 7063PP      PP17167   7.660   4.688   3.281 -0.1203 -0.1154  0.0384
 7064PP      PP17168   1.391  11.942   4.161  0.2020 -0.0493 -0.5254
 7065PP      PP17169  14.836   5.600   1.012 -0.0945 -0.0884 -0.0308
 7066PP      PP17170   1.872  14.317   2.019  0.0007  0.1817  0.1214
 7067PP      PP17171   8.872   1.954  12.266 -0.0305  0.0225 -0.1992
 7068PP      PP17172  12.333   9.906   1.366  0.0705 -0.1435 -0.0651
 7069PP      PP17173  13.178   8.037   9.509  0.0541  0.1495 -0.3086
 7070PP      PP17174   8.963   5.386   9.839  0.1051  0.2611 -0.1804
 7071PP      PP17175   9.257   9.875   0.661 -0.0221  0.1351  0.0743
 7072PP      PP17176   9.185   1.533   9.985 -0.3894  0.1517  0.0407
 7073PP      PP17177  11.789   4.607  12.691 -0.0665 -0.0202  0.1951
 7074PP      PP17178   3.000  13.905   2.604  0.1314 -0.2149  0.0730
 7075PP      PP17179  13.267  15.119  11.589  0.0942  0.0819 -0.2177
 7076PP      PP17180  14.865   7.884   0.594 -0.4071 -0.0554  0.0466
 7077PP      PP17181   1.242  14.220   9.674  0.2039 -0.0166 -0.0983
 7078PP      PP17182   6.177   0.503   3.987 -0.1548 -0.1041  0.0712
 7079PP      PP17183   4.640  12.390   3.853 -0.3237 -0.1607  0.0872
 7080PP      PP17184  12.850  12.610  10.933  0.0410  0.1496 -0.6289
 7081PP      PP17185   2.422  10.963   3.248 -0.0976 -0.0572  0.0138
 7082PP      PP17186   1.617   5.138   2.469 -0.0707  0.1315 -0.0935
 7083PP      PP17187   9.092  15.129  12.968  0.0386  0.0890 -0.0169
 7084PP      PP17188   3.387   1.669   2.637  0.3903  0.1244 -0.0310
 7085PP      PP17189   6.530   4.846  12.003  0.2421  0.0836 -0.0283
 7086PP      PP17190  13.669  11.839  10.158  0.2240  0.1231  0.0333
 7087PP      PP17191   7.367   6.572   1.708  0.3152  0.2226  0.0203
 7088PP      PP17192   5.688   9.265  11.181 -0.1376 -0.0339  0.2058
 7089PP      PP17193   0.217  10.861   9.730  0.0709  0.0299  0.2099
 7090PP      PP17194   9.055   2.081   3.783  0.1513 -0.3096 -0.2496
 7091PP      PP17195   7.993   9.804   9.898  0.0726 -0.0640 -0.0048
 7092PP      PP17196   7.975   2.101  12.695  0.1218  0.2561  0.0890
 7093PP      PP17197   1.794   3.480  12.937  0.0706 -0.0982  0.0335
 7094PP      PP17198   2.995  10.861   1.561 -0.3309 -0.2448  0.1949
 7095PP      PP17199  10.001   5.773   9.741 -0.0721 -0.2786 -0.0848
 7096PP      PP17200   2.877   5.380  11.447  0.1410  0.2135 -0.0201
 7097PP      PP17201   5.801   3.591   0.583  0.0108  0.2192  0.1128
 7098PP      PP17202   1.050   0.369   9.439  0.0827  0.0089 -0.0817
 7099PP      PP17203   5.714   7.168  10.493 -0.0329  0.1727 -0.1154
 7100PP      PP17204   2.305   6.009   3.395  0.1149  0.0655  0.2289
 7101PP      PP17205   7.893  13.810   2.305  0.0555 -0.0274  0.0520
 7102PP      PP17206   4.053   7.823   2.283 -0.1904  0.1244  0.1180
 7103PP      PP17207   3.626   7.084   0.292 -0.0589  0.0922  0.3078
 7104PP      PP17208   5.126  14.778   4.805 -0.1297  0.2547  0.1337
 7105PP      PP17209   4.131   1.984  10.451  0.1678  0.0542 -0.1317
 7106PP      PP17210  12.746   9.060   9.942 -0.2077 -0.1897 -0.1146
 7107PP      PP17211   9.050  11.693  11.478 -0.0813 -0.2723  0.0540
 7108PP      PP17212  14.804   6.142   4.616  0.0214 -0.2851 -0.1599
 7109PP      PP17213   9.745   0.776  11.017 -0.2931 -0.2981  0.3006
 7110PP      PP17214   3.156   1.634   1.068 -0.0124 -0.3966 -0.1511
 7111PP      PP17215  11.830   7.025  10.463 -0.1625 -0.0113 -0.0502
 7112PP      PP17216   8.091  14.083  11.421  0.0167  0.0820 -0.1243
 7113PP      PP17217  11.641  11.212   2.701 -0.4177 -0.0541  0.1240
 7114PP      PP17218  13.116   4.904   2.462  0.1438 -0.1091  0.0052
 7115PP      PP17219   4.562   3.653  12.511  0.4382 -0.1347 -0.1048
 7116PP      PP17220   1.487   2.080   2.585 -0.0409  0.1302  0.0025
 7117PP      PP17221  11.844  12.460  10.170  0.0026 -0.1025  0.1877
 7118PP      PP17222   6.628   7.246   4.755 -0.2509  0.3459  0.1980
 7119PP      PP17223   2.656  12.640   1.287 -0.1197  0.0097  0.0463
 7120PP      PP17224   4.391   2.038   4.471 -0.0807 -0.0545 -0.1616
 7121PP      PP17225   8.121  13.869   0.844 -0.3109 -0.0864 -0.0168
 7122PP      PP17226   0.241   6.716  10.008  0.0362 -0.2115  0.3224
 7123PP      PP17227   3.609   7.950  11.010  0.0214  0.1613  0.2197
 7124PP      PP17228   4.659  11.940  12.751  0.0129  0.2377  0.0209
 7125PP      PP17229  14.934   6.077   2.056 -0.3579 -0.1066  0.1347
 7126PP      PP17230   7.834  10.965   0.032 -0.0070  0.1427 -0.2659
 7127PP      PP17231   6.596   8.400   3.572  0.0056 -0.2344 -0.1009
 7128PP      PP17232  12.513   5.618   5.267 -0.1101  0.0331  0.0057
 7129PP      PP17233   4.691   6.779   0.556 -0.1579  0.0163  0.1077
 7130PP      PP17234   9.944   0.658  11.912 -0.0774 -0.0102 -0.1336
 7131PP      PP17235   1.214   9.642  10.605 -0.1507  0.0425 -0.0680
 7132PP      PP17236   7.986   6.817   1.899 -0.1249 -0.0439 -0.3044
 7133PP      PP17237   7.664  14.172   9.191 -0.0431  0.0545  0.0906
 7134PP      PP17238   8.047   9.246   3.634 -0.1974 -0.4719 -0.0590
 7135PP      PP17239  14.146  15.623   3.611 -0.1196 -0.1251  0.1610
 7136PP      PP17240   9.790   3.925  10.034  0.1247 -0.0018  0.0889
 7137PP      PP17241   7.093  11.328   1.863  0.0394 -0.2802 -0.2900
 7138PP      PP17242   8.098   2.458  10.720 -0.0289  0.0930  0.0437
 7139PP      PP17243  14.491   4.855   3.866  0.0011  0.2204  0.0333
 7140PP      PP17244  12.161  13.424   1.077  0.4233  0.0574 -0.2180
 7141PP      PP17245  14.125   0.618   2.698 -0.1265  0.1941  0.1186
 7142PP      PP17246   5.193   3.693  10.080 -0.0180  0.2800  0.0452
 7143PP      PP17247   5.621   8.181   3.826 -0.2547 -0.2738  0.2620
 7144PP      PP17248  15.276   1.781  12.836 -0.1180  0.0731  0.0250
 7145PP      PP17249   0.217   4.504  11.402 -0.0712  0.0592 -0.2306
 7146PP      PP17250  11.204   2.967   2.554 -0.1805  0.2116  0.2658
 7147PP      PP17251  10.417   7.866   0.961  0.3329 -0.2355 -0.0014
 7148PP      PP17252   3.133  10.731  12.655  0.1536  0.0775 -0.1245
 7149PP      PP17253   6.815   9.914   0.877 -0.0076 -0.0067 -0.1047
 7150PP      PP17254  11.790  12.018   2.327  0.1008  0.0400  0.2266
 7151PP      PP17255   4.506   6.997   9.759  0.0613  0.0505  0.1089
 7152PP      PP17256   7.383  13.125   9.448 -0.0476 -0.0718 -0.0848
 7153PP      PP17257  12.899   6.301   0.575 -0.1002 -0.0246 -0.0974
 7154PP      PP17258   5.732   8.490   4.751 -0.0326 -0.1303  0.3055
 7155PP      PP17259   0.459   7.206   2.860  0.1192  0.0552 -0.2977
 7156PP      PP17260  12.397  14.214  10.641  0.0885 -0.1197 -0.2158
 7157PP      PP17261   2.135  10.287   5.225  0.1278  0.1851  0.0792
 7158PP      PP17262  12.495   0.768   9.233  0.0554 -0.0587 -0.4728
 7159PP      PP17263  14.569  13.785  10.230  0.1271  0.1618 -0.2905
 7160PP      PP17264  13.272   3.596   1.847  0.0750  0.2293 -0.0121
 7161PP      PP17265  15.476   8.850   2.779 -0.2674 -0.0360 -0.1839
 7162PP      PP17266   3.606   2.797   2.458  0.2104 -0.1417 -0.1383
 7163PP      PP17267   4.893   7.784  13.403  0.3685  0.2226 -0.2779
 7164PP      PP17268   1.336   3.256   2.617  0.0458  0.2688  0.0630
 7165PP      PP17269  15.735  13.423   3.965  0.0101  0.0741 -0.0918
 7166PP      PP17270   7.398   0.510   6.159  0.2660  0.0888  0.3477
 7167PP      PP17271   3.435   6.316   0.824  0.1876 -0.0312 -0.1889
 7168PP      PP17272   1.374   3.535   0.212  0.3049 -0.2588  0.2753
 7169PP      PP17273  13.398   3.670   4.219 -0.2125 -0.1902 -0.0976
 7170PP      PP17274   7.969  14.895   2.288 -0.2708  0.0986 -0.0115
 7171PP      PP17275   8.829   6.264  11.552  0.0389 -0.1025 -0.0425
 7172PP      PP17276  10.663   3.670   2.982 -0.0890  0.4845  0.3233
 7173PP      PP17277   6.379   5.593  12.346  0.0106  0.0571 -0.0678
 7174PP      PP17278   3.201  10.151   2.088  0.2567 -0.0024  0.1440
 7175PP      PP17279   3.512   3.177  10.244  0.3728 -0.1056  0.0006
 7176PP      PP17280   9.031  10.415   2.647  0.0099 -0.2455  0.0372
 7177PP      PP17281   6.472   6.498   3.919 -0.3083  0.0116  0.2239
 7178PP      PP17282   1.025  10.860   4.089  0.0963  0.2336 -0.0917
 7179PP      PP17283  11.791   9.163   9.646  0.2505  0.0306 -0.1607
 7180PP      PP17284   9.304   6.756   0.682 -0.1075 -0.2183  0.1185
 7181PP      PP17285   2.877  10.071   0.897 -0.1348 -0.0696  0.4419
 7182PP      PP17286   3.039   8.914   0.297 -0.2922 -0.1366 -0.1642
 7183PP      PP17287   4.247  14.985  11.275 -0.2005 -0.0446 -0.2395
 7184PP      PP17288   4.779  11.211   2.737 -0.2220  0.3819  0.2581
 7185PP      PP17289   9.421  10.740   0.987 -0.1639  0.1651  0.3926
 7186PP      PP17290   6.371   2.455   1.462 -0.3881  0.2361 -0.0596
 7187PP      PP17291   3.739   2.840  10.557 -0.1060 -0.2401 -0.1100
 7188PP      PP17292   3.619   4.717   2.464 -0.1243 -0.1527  0.1905
 7189PP      PP17293   5.762  15.882   4.242 -0.1398 -0.3729 -0.2955
 7190PP      PP17294  13.555   1.162   0.324 -0.0839 -0.2163  0.1158
 7191PP      PP17295  11.111   9.565  10.177  0.1468  0.3762 -0.4326
 7192PP      PP17296  10.408   1.607   3.615  0.0126  0.3269  0.1957
 7193PP      PP17297   3.340   9.875   3.976 -0.1061  0.1958  0.2362
 7194PP      PP17298   6.386   1.691   0.266 -0.0332  0.2717  0.2116
 7195PP      PP17299   8.500   3.232  12.597  0.3578  0.0840  0.0744
 7196PP      PP17300  12.993   8.685   1.651  0.1478  0.1125 -0.0243
 7197PP      PP17301   6.034   8.178   2.830 -0.0051 -0.0505  0.2789
 7198PP      PP17302  15.414   3.644  13.430 -0.0853  0.6274 -0.0544
 7199PP      PP17303  12.174   3.204   8.930 -0.0745  0.2005  0.1426
 7200PP      PP17304   8.922   3.222   1.564 -0.0064 -0.1795 -0.2376
 7201PP      PP17305   1.881   6.234   3.568  0.0679  0.1372 -0.1649
 7202PP      PP17306   0.853  10.045  11.609 -0.1613 -0.3153 -0.0742
 7203PP      PP17307  15.431  12.205   1.858  0.3197 -0.4124  0.0572
 7204PP      PP17308   7.340   2.405   3.377 -0.1964 -0.0395  0.1243
 7205PP      PP17309   3.879   8.051   2.755 -0.0213 -0.1586 -0.0363
 7206PP      PP17310  11.028  12.678   2.516 -0.2218  0.0734  0.5009
 7207PP      PP17311   9.583   6.617  12.336  0.0981  0.3082 -0.1969
 7208PP      PP17312   7.349   4.069  13.364 -0.1897  0.0084 -0.4124
 7209PP      PP17313   3.660   8.673  12.382  0.0139 -0.0741 -0.2149
 7210PP      PP17314   8.817   3.143  12.214  0.3179  0.1460 -0.2306
 7211PP      PP17315   8.935  13.793   0.959 -0.1224  0.2181 -0.0706
 7212PP      PP17316   5.347   6.500   3.634  0.1104  0.1494 -0.2256
 7213PP      PP17317  13.130   9.550  10.646  0.1583  0.1705 -0.1051
 7214PP      PP17318  15.866  10.473  10.005  0.1327  0.1299  0.0067
 7215PP      PP17319  15.169  12.058   0.726 -0.2384 -0.1699  0.3325
 7216PP      PP17320   2.479  11.587   1.779  0.0168 -0.1249  0.0198
 7217PP      PP17321  10.403   0.754   0.727 -0.1968 -0.0305 -0.2698
 7218PP      PP17322   5.158  10.436   5.272  0.0708 -0.0020 -0.2174
 7219PP      PP17323   9.550   5.822   9.477 -0.1585 -0.0491 -0.1923
 7220PP      PP17324   4.107   1.350   9.600 -0.1589  0.0418 -0.3341
 7221PP      PP17325   7.236   9.884   3.546 -0.4484 -0.2386  0.0522
 7222PP      PP17326   9.878  10.888  12.805  0.0826  0.1860 -0.1357
 7223PP      PP17327  14.104  14.367   3.692 -0.1775  0.1368 -0.1023
 7224PP      PP17328  13.583   1.524  11.009 -0.0038 -0.0094  0.3393
 7225PP      PP17329   4.551   8.940   0.491  0.1237  0.2706 -0.1597
 7226PP      PP17330   0.704   0.969  11.200 -0.1044  0.0298  0.2848
 7227PP      PP17331   7.734  15.225   3.060  0.1716 -0.0542  0.1008
 7228PP      PP17332  12.096  10.255  12.818 -0.1881 -0.0826  0.0319
 7229PP      PP17333   6.227   4.556   2.880  0.0730  0.1561  0.0565
 7230PP      PP17334   0.941   7.721  11.395  0.3253  0.2996  0.1263
 7231PP      PP17335  12.423   1.279   4.411 -0.2574  0.0494 -0.2966
 7232PP      PP17336   9.240   6.140  10.987 -0.3693  0.2073  0.1567
 7233PP      PP17337  10.570   1.176  10.868 -0.0504 -0.1550  0.0147
 7234PP      PP17338   2.649  11.662  12.436  0.0666 -0.0056  0.1730
 7235PP      PP17339   8.276   1.571   3.711  0.0801 -0.0623 -0.0126
 7236PP      PP17340   2.946  13.957  10.676 -0.3253  0.1708 -0.3110
 7237PP      PP17341  15.475   1.324  10.654 -0.2313 -0.3411 -0.2751
 7238PP      PP17342  12.470   0.784   2.076  0.2208 -0.0808  0.0044
 7239PP      PP17343   1.136   2.074  11.385  0.1734  0.0939  0.2289
 7240PP      PP17344   4.462  15.671   1.269  0.0866 -0.3077 -0.1809
 7241PP      PP17345   9.530  10.840   4.647  0.0034 -0.2086  0.0923
 7242PP      PP17346   9.133   6.094   3.516  0.1326  0.1874 -0.1371
 7243PP      PP17347   3.309   1.011   9.225  0.2866  0.2459 -0.1204
 7244PP      PP17348  13.228  14.036  10.262 -0.0774  0.4487 -0.2136
 7245PP      PP17349  11.182   6.049   3.380 -0.1005  0.0637  0.2607
 7246PP      PP17350  10.880   5.486   3.299 -0.1779 -0.0976 -0.1601
 7247PP      PP17351   7.990   0.518  10.835 -0.1298 -0.1527 -0.0171
 7248PP      PP17352  15.084  12.928   3.987  0.0621 -0.2129 -0.1764
 7249PP      PP17353   5.837  13.135  13.290 -0.0308  0.0839 -0.2039
 7250PP      PP17354  12.565   9.965   9.990  0.1371  0.0414  0.0072
 7251PP      PP17355   8.188   3.540  10.626 -0.1850  0.1412 -0.2793
 7252PP      PP17356   6.215  13.018   8.697 -0.0984  0.2921  0.3922
 7253PP      PP17357  14.549   7.701   0.910  0.0765  0.1324  0.1406
 7254PP      PP17358   9.837  13.712   0.131 -0.2542  0.0502  0.2497
 7255PP      PP17359  14.094   8.759   4.419 -0.2513  0.1108 -0.4312
 7256PP      PP17360   0.641   9.372   4.030  0.1343 -0.2760  0.5018
 7257PP      PP17361   1.088  12.427  12.588 -0.2059  0.1516  0.0752
 7258PP      PP17362   5.522   7.615  10.962 -0.0254 -0.1242  0.2448
 7259PP      PP17363   5.822   3.137   0.067  0.1917  0.1682 -0.0200
 7260PP      PP17364   9.556  15.389  12.245  0.0896  0.0276  0.1270
 7261PP      PP17365   0.914  11.261   0.959 -0.1172  0.0322  0.0091
 7262PP      PP17366   4.278   8.198  10.998 -0.0118  0.1156 -0.1840
 7263PP      PP17367  13.820   0.484  10.670 -0.2547  0.2367  0.2311
 7264PP      PP17368   4.924   9.516  11.783 -0.2735  0.0398 -0.1152
 7265PP      PP17369   4.362  11.595  10.903  0.1341  0.1422 -0.0104
 7266PP      PP17370  13.916   4.277   8.982 -0.2078  0.3233 -0.1771
 7267PP      PP17371  10.543   2.418  11.576 -0.1240 -0.1538 -0.1003
 7268PP      PP17372   9.575   4.330   4.456  0.0267  0.0827 -0.2612
 7269PP      PP17373  12.359   4.049   8.652  0.0489 -0.2059  0.1428
 7270PP      PP17374   0.508  13.837   3.909 -0.0990  0.1421  0.4340
 7271PP      PP17375   2.720   7.929   4.199  0.3709 -0.1027  0.0273
 7272PP      PP17376  11.313   0.641  10.235 -0.1504  0.2158  0.0440
 7273PP      PP17377  12.876  15.545   3.402  0.1167  0.0292  0.2093
 7274PP      PP17378  10.857   4.946  11.639 -0.2257 -0.1335 -0.0912
 7275PP      PP17379  14.079   0.058   2.786 -0.2664  0.0600  0.1494
 7276PP      PP17380   7.725  10.138   3.799  0.0430 -0.1915 -0.4593
 7277PP      PP17381  14.775   5.034   9.324  0.0488 -0.1967 -0.2527
 7278PP      PP17382  10.838   4.288   2.261  0.2466  0.1461 -0.4511
 7279PP      PP17383   4.549   9.386  10.922 -0.0844  0.0860  0.1039
 7280PP      PP17384  10.616   0.636  11.812 -0.0185  0.2624  0.2191
 7281PP      PP17385   0.431  10.578  11.359 -0.2859 -0.0989 -0.0011
 7282PP      PP17386   7.509   5.226  11.206  0.0172  0.1959  0.1845
 7283PP      PP17387  14.820  14.887  11.640 -0.0132 -0.1728 -0.4181
 7284PP      PP17388   0.230   1.916  12.176 -0.2662  0.1291 -0.0668
 7285PP      PP17389   3.051   9.688   2.065 -0.2092 -0.1653 -0.2141
 7286PP      PP17390   9.963   5.669  10.246 -0.0030  0.1611  0.1918
 7287PP      PP17391   0.227   3.584   3.977  0.2252 -0.2221  0.0665
 7288PP      PP17392   7.221  11.150   2.616  0.5190 -0.0267  0.0084
 7289PP      PP17393   7.476   8.172  10.589  0.4275  0.0484  0.2460
 7290PP      PP17394  11.076   1.217   1.698  0.3077 -0.2023  0.0709
 7291PP      PP17395   7.226   4.813   3.007 -0.2283 -0.1222  0.0230
 7292PP      PP17396   2.091   0.750   9.857 -0.0275  0.2549  0.0500
 7293PP      PP17397   7.292   2.280  10.177  0.0050  0.1601 -0.0060
 7294PP      PP17398  15.545   9.386   4.428  0.1082 -0.1268  0.0846
 7295PP      PP17399   2.609   7.711   1.097  0.1722  0.2790  0.1044
 7296PP      PP17400   5.738  11.792   4.245  0.2357 -0.0748 -0.1756
 7297PP      PP17401   0.749  12.521   2.136 -0.1018 -0.0543  0.3007
 7298PP      PP17402  12.178   2.470   3.564 -0.3030  0.2318 -0.0150
 7299PP      PP17403  14.922   3.878   4.070  0.0180 -0.0997  0.0871
 7300PP      PP17404   6.038  12.116  13.394 -0.1651  0.2175  0.0641
 7301PP      PP17405  11.685   2.351   3.446  0.1451  0.1795 -0.0198
 7302PP      PP17406  12.151  11.714   3.165 -0.0012 -0.0170 -0.3004
 7303PP      PP17407   6.771   0.540   3.672  0.2651 -0.0084 -0.1284
 7304PP      PP17408  11.279   8.495   0.298 -0.0996 -0.2335  0.2728
 7305PP      PP17409   2.989   3.047   8.639 -0.3702 -0.0533  0.0557
 7306PP      PP17410   1.142  15.416   3.093  0.2634  0.0356 -0.1015
 7307PP      PP17411   6.045   2.087   4.297  0.2466 -0.1160 -0.0632
 7308PP      PP17412  11.178  10.575  11.876 -0.2390  0.0226 -0.1542
 7309PP      PP17413   4.952  12.695   0.837 -0.2691 -0.3793  0.1103
 7310PP      PP17414   3.570  14.289   4.662  0.3077 -0.0180  0.2999
 7311PP      PP17415   3.027   1.159   1.133  0.1094 -0.0508 -0.4188
 7312PP      PP17416   8.479  13.252   0.092 -0.1274  0.2866 -0.0382
 7313PP      PP17417   2.264  10.151   1.337  0.0901 -0.1550  0.2356
 7314PP      PP17418   6.151   2.979   2.306  0.0825 -0.0015 -0.2251
 7315PP      PP17419  10.437   5.431  10.394  0.2454  0.1410  0.0417
 7316PP      PP17420   0.093  14.095   9.630 -0.3187  0.2389 -0.2634
 7317PP      PP17421  15.319  11.742   1.826 -0.2927 -0.0816  0.1785
 7318PP      PP17422   3.033   5.813   4.413 -0.3762 -0.2763 -0.0416
 7319PP      PP17423   4.558   6.326  12.158 -0.0496 -0.2310  0.2769
 7320PP      PP17424   7.114   2.563  12.039 -0.3832 -0.2159 -0.2250
 7321PP      PP17425   6.043   4.171   4.615  0.1021 -0.1633 -0.2516
 7322PP      PP17426   6.001  14.928   9.375 -0.2457  0.2457  0.0161
 7323PP      PP17427   7.084   9.386   4.694  0.2276 -0.0571  0.0074
 7324PP      PP17428   6.990   0.570  13.133  0.0409  0.1998  0.0001
 7325PP      PP17429   1.039  14.174   2.533 -0.2334  0.0458  0.0816
 7326PP      PP17430   4.205   2.579   9.412 -0.0996  0.3643 -0.1211
 7327PP      PP17431   9.992   7.536  12.725 -0.3286  0.0436  0.1107
 7328PP      PP17432  13.165   4.459  11.744  0.2454 -0.0206  0.0030
 7329PP      PP17433  11.137   2.318  13.061 -0.3724 -0.2608  0.2361
 7330PP      PP17434   2.887   9.407  11.306 -0.4290 -0.1030 -0.0463
 7331PP      PP17435   0.867   0.485  11.109  0.1550 -0.3778 -0.2420
 7332PP      PP17436   2.388   8.475  11.154  0.1365  0.0571  0.1992
 7333PP      PP17437  14.327  13.983   1.116 -0.0558 -0.1318  0.2255
 7334PP      PP17438  12.832   3.747   4.972 -0.0133 -0.0656  0.2005
 7335PP      PP17439  10.332   5.628   9.353 -0.0956  0.2850 -0.1766
 7336PP      PP17440   8.530  10.899  10.351 -0.1193  0.0458  0.1912
 7337PP      PP17441  10.184   9.717   8.238  0.0523 -0.0135 -0.1159
 7338PP      PP17442  13.514   7.301   3.963 -0.2864 -0.3010  0.2138
 7339PP      PP17443   6.123  14.838   1.422  0.2776  0.1988 -0.0780
 7340PP      PP17444  10.246  10.313  10.733 -0.1716 -0.3117 -0.4858
 7341PP      PP17445   3.872   9.785   3.870  0.2341 -0.1153 -0.2567
 7342PP      PP17446  10.170  12.700  10.604  0.0788  0.2027 -0.1855
 7343PP      PP17447   6.990   9.309   3.624 -0.0831  0.3743  0.1001
 7344PP      PP17448   0.810  13.532  11.271  0.0535 -0.2063 -0.0193
 7345PP      PP17449  11.158   5.326   9.797  0.2987 -0.0983 -0.1212
 7346PP      PP17450  10.621   5.242  12.187  0.1877  0.1257  0.0732
 7347PP      PP17451   2.922   6.037   4.924 -0.3031  0.1189  0.0750
 7348PP      PP17452   7.163  11.865   3.198 -0.1900  0.1270 -0.2579
 7349PP      PP17453  12.672   5.008  10.075 -0.0950 -0.1701  0.1720
 7350PP      PP17454   2.903   2.845  12.504  0.1115  0.2025 -0.0836
 7351PP      PP17455   4.625  14.660   2.038 -0.0415  0.1051 -0.0503
 7352PP      PP17456   8.024   2.913   2.645 -0.1344  0.2408  0.0978
 7353PP      PP17457   4.148   2.855  10.239  0.1096  0.2873 -0.2588
 7354PP      PP17458  13.824   6.495  12.803  0.3115 -0.0286 -0.0185
 7355PP      PP17459  12.685   7.895  11.480 -0.0426  0.2233  0.0071
 7356PP      PP17460   1.514   3.391  10.332 -0.2340 -0.1725 -0.0664
 7357PP      PP17461  15.505  14.193   0.788  0.1018 -0.0711 -0.1804
 7358PP      PP17462  10.192  12.096  12.848  0.0868  0.1268 -0.3414
 7359PP      PP17463  11.643   7.677  11.909  0.0023  0.4333  0.1820
 7360PP      PP17464  14.068   2.982   4.125 -0.0221 -0.3471 -0.1939
 7361PP      PP17465   2.026   0.079  10.469  0.0721  0.2298 -0.0532
 7362PP      PP17466   5.834  14.835   0.994  0.1108 -0.3065  0.1206
 7363PP      PP17467   8.072   5.482   4.588 -0.0649 -0.0029 -0.3823
 7364PP      PP17468   1.110   9.759   2.025 -0.1772  0.5078  0.2104
 7365PP      PP17469   0.937  13.555  11.810 -0.1290 -0.0879  0.0038
 7366PP      PP17470  15.701   0.281  12.675  0.1727 -0.0766 -0.0523
 7367PP      PP17471  10.404   0.815  10.368 -0.0990  0.1020 -0.2544
 7368PP      PP17472   4.876   5.960   3.799  0.0326 -0.0365 -0.3385
 7369PP      PP17473   3.242   5.898   1.047  0.2519 -0.2453  0.1147
 7370PP      PP17474   5.123   1.259   0.245  0.0961 -0.1310  0.2186
 7371PP      PP17475   0.575  14.123   1.651 -0.1598  0.1403  0.0996
 7372PP      PP17476  14.290  13.170   3.421 -0.2279  0.1196 -0.0281
 7373PP      PP17477  10.639   2.607   2.751 -0.1863 -0.1399  0.0581
 7374PP      PP17478   0.007   2.698   9.429  0.0468 -0.1134  0.0273
 7375PP      PP17479  11.351   7.747   2.785 -0.0238  0.0355  0.0628
 7376PP      PP17480  14.833  14.007   4.800  0.0903  0.1549  0.1226
 7377PP      PP17481   9.902   5.138  10.223  0.2992 -0.2098  0.2316
 7378PP      PP17482   6.560   0.099  11.907 -0.1159  0.2333  0.0692
 7379PP      PP17483   9.411   7.736  12.348  0.0108  0.2831 -0.0533
 7380PP      PP17484   0.015   4.394  10.705  0.3659  0.2937 -0.2677
 7381PP      PP17485   2.502   7.890  12.358  0.1980 -0.1387  0.0454
 7382PP      PP17486   2.311   0.979   3.711  0.0216 -0.3080 -0.0526
 7383PP      PP17487  10.549   5.076  11.182 -0.0209  0.3093 -0.1786
 7384PP      PP17488   5.838   8.608  10.973 -0.0228 -0.3831 -0.2085
 7385PP      PP17489  10.897   8.579  12.650 -0.0098  0.0964  0.1404
 7386PP      PP17490   8.118   0.794   0.286 -0.0907  0.1073  0.0909
 7387PP      PP17491  13.254  12.406  10.636 -0.1872  0.3717 -0.1358
 7388PP      PP17492   1.131  11.623   0.668 -0.5735  0.0761  0.0913
 7389PP      PP17493   2.198   7.894   2.768 -0.0438 -0.3241 -0.0431
 7390PP      PP17494   5.087   5.588   1.313 -0.0356 -0.1517  0.0981
 7391PP      PP17495  13.774   9.622   9.384 -0.0198 -0.1312  0.0694
 7392PP      PP17496   0.190   5.954  11.108  0.2688 -0.0533  0.1725
 7393PP      PP17497  12.721   3.474   0.558 -0.0050 -0.0235  0.0384
 7394PP      PP17498   4.392   4.398   3.540 -0.0581 -0.2685 -0.1870
 7395PP      PP17499   4.535   5.703   2.459 -0.0951  0.2798 -0.1381
 7396PP      PP17500   0.729   9.893   1.717  0.0169  0.0950  0.0575
 7397PP      PP17501  12.051   7.682  11.271 -0.0655  0.0843 -0.2454
 7398PP      PP17502   5.525   4.503   9.037  0.0254 -0.1654  0.1042
 7399PP      PP17503  15.282   2.660   4.430  0.2553  0.0668 -0.0760
 7400PP      PP17504   5.134  10.226  13.219 -0.4684  0.1387 -0.1113
 7401PP      PP17505  15.486   7.393  11.149  0.0776  0.0636  0.1172
 7402PP      PP17506   9.345   8.277   2.014  0.0363 -0.2455 -0.1862
 7403PP      PP17507  13.520  11.628   3.253 -0.2411  0.2023 -0.3759
 7404PP      PP17508  15.597   2.830   2.600 -0.0740  0.1443 -0.0983
 7405PP      PP17509  13.479   6.784   2.851 -0.1206  0.0089  0.1223
 7406PP      PP17510  14.204   5.376  11.611  0.0470 -0.2271  0.1854
 7407PP      PP17511   5.826   6.264   2.838  0.1873  0.0439 -0.1894
 7408PP      PP17512  12.367  11.089   3.373  0.0099  0.0196 -0.0471
 7409PP      PP17513  11.538   6.714   1.205  0.2534 -0.3178  0.1361
 7410PP      PP17514   8.180   9.372  10.249  0.2138  0.2077 -0.1988
 7411PP      PP17515  15.472  15.850   8.691 -0.2841 -0.1573  0.0452
 7412PP      PP17516   6.357   9.812   5.202 -0.0426  0.1013 -0.0381
 7413PP      PP17517   1.748  13.868  11.346  0.1040 -0.2650  0.1673
 7414PP      PP17518   2.018  10.646  12.048  0.2044 -0.0243 -0.0407
 7415PP      PP17519  13.037  15.100   3.377 -0.0979 -0.1485  0.0305
 7416PP      PP17520   9.347   1.848  12.587 -0.1120 -0.2203  0.0351
 7417PP      PP17521  11.000   8.448   0.997 -0.0571 -0.0608  0.2167
 7418PP      PP17522  14.965  14.534  12.022  0.0851 -0.0172  0.1005
 7419PP      PP17523  15.710   8.464   3.166 -0.1126 -0.1121  0.1650
 7420PP      PP17524  14.102  14.615   2.724  0.0926  0.0005  0.1923
 7421PP      PP17525   3.328  10.211   2.590  0.4358  0.0654 -0.0362
 7422PP      PP17526   2.946   1.811   2.403 -0.0178  0.3692  0.3191
 7423PP      PP17527   9.359  14.479   3.098 -0.4591 -0.0565  0.3161
 7424PP      PP17528  10.599   1.406   8.693  0.3345 -0.1415 -0.2890
 7425PP      PP17529  13.169   3.357   0.751  0.1724 -0.1165 -0.2280
 7426PP      PP17530   3.224   8.383  11.831 -0.1542 -0.3397  0.0563
 7427PP      PP17531   9.016   3.410   3.368  0.0511 -0.2024 -0.0603
 7428PP      PP17532   6.404  15.499   3.117  0.1927  0.0892 -0.4009
 7429PP      PP17533   5.799   1.114   2.727 -0.1111  0.1347 -0.2749
 7430PP      PP17534   3.754  11.977   9.291  0.1277  0.0449  0.3581
 7431PP      PP17535   7.452   6.408   3.469  0.0790 -0.3756 -0.2462
 7432PP      PP17536   9.101  11.109   3.784  0.1745 -0.1364  0.1251
 7433PP      PP17537   2.111   1.882   2.597  0.0551  0.0613 -0.0846
 7434PP      PP17538  12.303   2.431  13.221 -0.0100 -0.0244  0.0062
 7435PP      PP17539  10.719   8.863   8.948  0.0375 -0.1513  0.2135
 7436PP      PP17540  13.721   2.115  11.456 -0.1031  0.0996  0.0943
 7437PP      PP17541   8.754  14.530   8.620 -0.1261 -0.2519 -0.3206
 7438PP      PP17542   8.252   7.494   2.863  0.0731 -0.2157 -0.0928
 7439PP      PP17543   8.941  11.340   0.449  0.3263 -0.1313 -0.1735
 7440PP      PP17544   4.756  12.429   9.428  0.0927 -0.2781 -0.4520
 7441PP      PP17545   1.891   5.294  12.379 -0.0602 -0.1127 -0.0218
 7442PP      PP17546   1.919   2.440  10.495  0.0844 -0.0910 -0.0077
 7443PP      PP17547  10.014   9.859   9.795  0.1944 -0.1411  0.2054
 7444PP      PP17548   2.975  14.002   0.121  0.1407  0.0205 -0.0632
 7445PP      PP17549  13.190  15.598   1.303 -0.3897  0.0821 -0.0645
 7446PP      PP17550  14.804   7.500   4.379  0.0612 -0.0086  0.0693
 7447PP      PP17551  14.488   5.769  11.972  0.1375  0.0687 -0.0951
 7448PP      PP17552   0.675   0.573   1.703 -0.1566 -0.1184  0.0097
 7449PP      PP17553   5.563   0.197  11.782 -0.0247  0.1315 -0.0515
 7450PP      PP17554  13.902  14.038   8.830 -0.2365 -0.1093  0.2374
 7451PP      PP17555   2.280   8.282  12.207  0.2312 -0.2607  0.2262
 7452PP      PP17556  10.806   3.031   8.628 -0.1677  0.2480  0.0896
 7453PP      PP17557  13.466   8.555  13.416 -0.3052 -0.0191  0.1578
 7454PP      PP17558  12.471  15.804   3.263  0.1088 -0.0896 -0.0734
 7455PP      PP17559   0.190   5.676   1.135  0.0020  0.4395  0.1942
 7456PP      PP17560   5.966   4.749  13.377 -0.0881 -0.0353  0.0925
 7457PP      PP17561   6.284   0.467   3.421 -0.0864 -0.0227  0.3142
 7458PP      PP17562  13.003   7.462  11.346 -0.0167 -0.3284 -0.0303
 7459PP      PP17563   1.527   6.714   4.280  0.6113  0.0480  0.0561
 7460PP      PP17564   4.499   6.631   2.173  0.0130 -0.1674  0.0088
 7461PP      PP17565  15.258  12.284   3.407  0.0845  0.0155  0.0928
 7462PP      PP17566   9.566  13.008   2.645  0.3209  0.0752 -0.2247
 7463PP      PP17567   4.167  10.265  11.372  0.1506  0.0232 -0.2239
 7464PP      PP17568  10.366   6.920   0.078 -0.1737  0.1605  0.0460
 7465PP      PP17569   8.863  10.452  10.748 -0.0854 -0.1591  0.1884
 7466PP      PP17570   3.411  11.058   9.501  0.2887 -0.1988  0.2586
 7467PP      PP17571   0.560   8.961  10.121 -0.1797 -0.0828  0.3216
 7468PP      PP17572  12.781   0.528   1.731 -0.0653  0.0535  0.1490
 7469PP      PP17573  10.666   6.846  13.011  0.0025 -0.3362  0.1996
 7470PP      PP17574  14.594   8.456  11.699  0.1851  0.1549 -0.1407
 7471PP      PP17575   0.787   3.446   2.608 -0.1341 -0.3881  0.0076
 7472PP      PP17576   4.697   6.008  13.431  0.1142  0.0645  0.0596
 7473PP      PP17577   5.473   7.055  10.970  0.0355 -0.0755 -0.0466
 7474PP      PP17578   9.871   3.330   2.073 -0.3155  0.1329 -0.2440
 7475PP      PP17579  12.869  14.284   3.193  0.1437 -0.0610  0.2654
 7476PP      PP17580   2.918   6.470   5.413 -0.0591  0.2837 -0.0780
 7477PP      PP17581   2.071  12.531   3.337 -0.1755 -0.0567 -0.1355
 7478PP      PP17582   1.750   6.442  10.574 -0.3894 -0.2110  0.0343
 7479PP      PP17583   5.165   9.846   0.114 -0.1482  0.0220 -0.1869
 7480PP      PP17584   6.860   7.335  12.705  0.0798  0.0373  0.0819
 7481PP      PP17585   9.699   4.579  10.818 -0.1454  0.0056 -0.1731
 7482PP      PP17586  14.105   4.389   3.758  0.0287  0.1704 -0.2710
 7483PP      PP17587  14.033   8.318  12.460  0.1855  0.1047  0.0191
 7484PP      PP17588   3.570   0.708  12.886  0.2587  0.0105  0.0902
 7485PP      PP17589   4.995   1.618   2.743  0.2724 -0.1083 -0.0185
 7486PP      PP17590   2.004   5.932  11.235 -0.1013 -0.0731 -0.0786
 7487PP      PP17591  13.865   0.806   0.953  0.0991  0.2098  0.1255
 7488PP      PP17592   0.481   5.026  12.377  0.1088  0.1340 -0.1715
 7489PP      PP17593   5.447   1.543   3.573  0.2363 -0.0422  0.2424
 7490PP      PP17594   9.977   1.956  13.362  0.0362 -0.1651 -0.0898
 7491PP      PP17595  12.932   3.720   1.060 -0.2660  0.1798 -0.1216
 7492PP      PP17596   3.393   8.677   0.547  0.1246  0.4218  0.1549
 7493PP      PP17597   8.245  12.514   2.690  0.1912 -0.2454  0.0135
 7494PP      PP17598   2.923   2.889  13.081  0.1716  0.1832 -0.0008
 7495PP      PP17599  15.445   4.201   1.871  0.0641  0.2257  0.0887
 7496PP      PP17600  13.069   3.753  10.453 -0.0912 -0.1179  0.3197
 7497PP      PP17601   7.267  10.831  13.215  0.4281  0.2093  0.1537
 7498PP      PP17602   5.542  13.514   1.705  0.2730  0.1383  0.0331
 7499PP      PP17603   4.500   1.173   0.302  0.2633  0.2144 -0.0969
 7500PP      PP17604   0.372  13.876  12.627 -0.1976 -0.1545 -0.3551
 7501PP      PP17605   4.217   9.400   3.796  0.2685 -0.2401 -0.3373
 7502PP      PP17606  13.276   3.250   3.298  0.1195  0.0477 -0.0872
 7503PP      PP17607   0.503   2.203  10.398 -0.0166 -0.2481 -0.3449
 7504PP      PP17608   7.309   6.752   3.110  0.1113  0.0362 -0.0133
 7505PP      PP17609  15.275  11.090  11.397 -0.1730  0.2772 -0.1800
 7506PP      PP17610   2.898  12.280   3.155  0.0164 -0.4032 -0.1998
 7507PP      PP17611   3.116   2.424  11.179 -0.2083 -0.4529  0.0136
 7508PP      PP17612   6.382   8.902  10.327  0.0372  0.0513  0.1424
 7509PP      PP17613   4.481   3.325   2.673 -0.1901  0.0120 -0.0241
 7510PP      PP17614   3.716  10.377   1.957  0.4735 -0.2055  0.0014
 7511PP      PP17615   2.247   3.646   1.386  0.0269 -0.0106 -0.2346
 7512PP      PP17616  11.866  11.412  10.215  0.0777  0.0734 -0.2564
 7513PP      PP17617   3.541   5.162   4.057  0.1492 -0.1030  0.0539
 7514PP      PP17618   8.341  12.712   2.188  0.0043 -0.2702  0.1664
 7515PP      PP17619   3.297   2.803   1.431  0.1391  0.0710 -0.3159
 7516PP      PP17620   1.627   4.504   1.009 -0.0111 -0.1853  0.1586
 7517PP      PP17621   5.353  12.713   4.591  0.1511 -0.0317  0.1490
 7518PP      PP17622   2.265   7.993   0.829 -0.0445  0.1195  0.1275
 7519PP      PP17623   4.910   0.344   0.151 -0.3032  0.0111 -0.0032
 7520PP      PP17624  10.820  14.977  10.223 -0.1463 -0.1500 -0.2125
 7521PP      PP17625   6.583   4.310  10.757 -0.0355  0.2530  0.0961
 7522PP      PP17626   3.586  12.101   0.109  0.1481  0.1548  0.0170
 7523PP      PP17627   5.880  12.051   3.243 -0.1311  0.1016 -0.1900
 7524PP      PP17628   8.716  13.397  12.147  0.0724 -0.4313  0.0766
 7525PP      PP17629   0.748   3.415   9.518  0.1752  0.1446  0.1377
 7526PP      PP17630  10.289   8.275  12.122  0.1757 -0.0763  0.1400
 7527PP      PP17631   3.268  10.770  12.223  0.2713 -0.0778  0.0890
 7528PP      PP17632   1.485  13.029   2.703 -0.1079 -0.1933  0.1510
 7529PP      PP17633  13.012   2.708   4.066 -0.1274 -0.1234  0.1383
 7530PP      PP17634   7.769   7.459   2.700  0.2066  0.3750 -0.3742
 7531PP      PP17635  14.331  11.141   3.024  0.3111  0.1512  0.1374
 7532PP      PP17636  14.393   8.183  11.316  0.5907  0.0455 -0.1051
 7533PP      PP17637  11.634   8.395  13.274  0.0824 -0.3356 -0.0855
 7534PP      PP17638   3.520   1.519  11.028  0.2925 -0.3006 -0.0536
 7535PP      PP17639   2.671   6.394   4.593  0.1158  0.0506 -0.3497
 7536PP      PP17640  14.628   2.216  12.309  0.1152 -0.0526 -0.1781
 7537PP      PP17641  12.616   2.597   3.796  0.4328 -0.1130 -0.4479
 7538PP      PP17642  14.597   6.303   1.726 -0.0599 -0.0109 -0.1274
 7539PP      PP17643  13.802  11.913   1.160  0.1776 -0.0442 -0.1384
 7540PP      PP17644  13.265   6.323   0.991  0.2500 -0.0441 -0.0434
 7541PP      PP17645  12.924  11.357  12.334  0.0629 -0.0607  0.1654
 7542PP      PP17646  10.629  14.919   9.209 -0.0037 -0.0677 -0.2684
 7543PP      PP17647  14.327   3.991  11.289  0.0831  0.1681  0.1975
 7544PP      PP17648  12.760  12.815   0.942 -0.0054 -0.3187 -0.3388
 7545PP      PP17649   7.105   7.361   4.621 -0.1073  0.0640  0.0467
 7546PP      PP17650  11.401   2.033  13.389 -0.1061  0.3413  0.1579
 7547PP      PP17651   6.886   5.198   4.216 -0.0653  0.0985  0.3785
 7548PP      PP17652  15.256   0.606  10.091  0.1362 -0.0712  0.0527
 7549PP      PP17653  11.659   1.465  11.802 -0.1626 -0.1203  0.0236
 7550PP      PP17654   0.518   7.236   2.355 -0.2082  0.0832 -0.2359
 7551PP      PP17655  10.780   9.743  12.682  0.1686 -0.0116 -0.0196
 7552PP      PP17656   0.799  14.653  10.465  0.1960  0.0002 -0.2809
 7553PP      PP17657   4.687   9.064  11.930 -0.0086 -0.3234  0.0153
 7554PP      PP17658   8.508  10.307   2.744  0.4645 -0.0167 -0.1020
 7555PP      PP17659   4.501   1.629   9.943 -0.0235  0.2398 -0.0036
 7556PP      PP17660   9.505  12.592  11.900 -0.2461  0.1740  0.1137
 7557PP      PP17661   8.929  13.461   0.525 -0.1317 -0.0624  0.1844
 7558PP      PP17662   3.413  14.604   3.165  0.0307 -0.0626  0.1320
 7559PP      PP17663   3.355   5.896  12.452  0.1691  0.3323  0.4184
 7560PP      PP17664  12.643   6.142  11.768  0.0221 -0.0469 -0.0100
 7561PP      PP17665  11.013  10.686   8.597 -0.0691 -0.0560  0.0590
 7562PP      PP17666  15.378   7.937   0.489 -0.1458  0.1525 -0.1400
 7563PP      PP17667   7.882  13.012  12.349 -0.1264  0.1667 -0.1863
 7564PP      PP17668  11.444   5.562  10.728 -0.2920  0.1590  0.0840
 7565PP      PP17669  10.012   1.677   9.799  0.2757 -0.0769 -0.3356
 7566PP      PP17670  12.850   1.207  10.055 -0.1268  0.0068 -0.1603
 7567PP      PP17671   2.906   1.452  11.919  0.1114 -0.1271  0.1107
 7568PP      PP17672  10.033   8.521   2.518  0.0843  0.0931 -0.1482
 7569PP      PP17673   7.436   2.606   2.513 -0.0008 -0.1714  0.1576
 7570PP      PP17674   7.640  12.158   9.812  0.4030 -0.1570  0.1106
 7571PP      PP17675   2.151   2.038   0.004  0.2328  0.1076 -0.3313
 7572PP      PP17676  10.514   6.852   9.287  0.1713  0.3150 -0.0367
 7573PP      PP17677   0.780   3.010   9.780 -0.4467  0.2696  0.1885
 7574PP      PP17678   8.756   2.533  12.844  0.1057 -0.1458 -0.1853
 7575PP      PP17679   6.785   7.984  12.003  0.1321 -0.1527 -0.2032
 7576PP      PP17680   8.330  10.442   3.183  0.0217  0.0819  0.1682
 7577PP      PP17681   3.109  12.510   2.720  0.0082  0.2105 -0.1296
 7578PP      PP17682   2.513   1.010  10.395 -0.0420  0.1549 -0.0402
 7579PP      PP17683   7.072   1.899  12.894 -0.2712  0.0940 -0.1547
 7580PP      PP17684   8.291  10.389   0.073 -0.1752 -0.0712 -0.1255
 7581PP      PP17685   8.996  10.924  12.523  0.1831 -0.0000 -0.1577
 7582PP      PP17686   1.985   1.774  12.566 -0.2304  0.0540 -0.0476
 7583PP      PP17687  14.933   3.071   9.992 -0.2604 -0.0013 -0.0076
 7584PP      PP17688   6.252  11.186   0.070 -0.2654 -0.1572 -0.1131
 7585PP      PP17689   9.554   0.309  11.028 -0.0507  0.1672 -0.1320
 7586PP      PP17690  11.631   0.696  12.581  0.1457  0.0584  0.1363
 7587PP      PP17691  15.585   9.660   3.579 -0.0199  0.1351  0.0199
 7588PP      PP17692   1.316   1.069  11.206 -0.2949  0.0429 -0.2204
 7589PP      PP17693   8.829  14.732   2.591  0.1716  0.0176  0.0606
 7590PP      PP17694  13.345  12.839  11.104  0.0592 -0.0157  0.0133
 7591PP      PP17695  10.741   8.666   3.949  0.2005 -0.0337  0.3163
 7592PP      PP17696   3.378   2.098   4.026 -0.0880  0.3465 -0.0104
 7593PP      PP17697   8.096   8.517  11.318 -0.0610 -0.0370 -0.1209
 7594PP      PP17698  13.783   9.728   3.062  0.2942  0.0455  0.0360
 7595PP      PP17699  15.008  10.789   0.257  0.0567 -0.1841  0.1216
 7596PP      PP17700   9.413  14.000  13.095 -0.3098  0.1811  0.0588
 7597PP      PP17701  11.977   8.985   8.891  0.1442 -0.0267  0.4892
 7598PP      PP17702   9.769  14.098  11.320  0.1491 -0.2585  0.2252
 7599PP      PP17703   8.876   1.032  13.068  0.2182  0.0851 -0.0524
 7600PP      PP17704   9.947  11.891  11.847  0.1414  0.0661  0.2980
 7601PP      PP17705  13.485   0.654  13.403  0.3092  0.0227  0.0033
 7602PP      PP17706  14.676  14.609   0.489  0.2673 -0.1056  0.0029
 7603PP      PP17707  10.676  10.030   1.592 -0.0848 -0.3217  0.3366
 7604PP      PP17708  15.031   0.646   9.637 -0.1849  0.2220 -0.1985
 7605PP      PP17709   9.682   8.507  11.800  0.2065  0.0425 -0.0200
 7606PP      PP17710   7.616  14.632   4.377 -0.2645 -0.0257  0.1975
 7607PP      PP17711  13.151   9.257   2.182 -0.2998  0.5545 -0.1790
 7608PP      PP17712   8.661   2.036   3.422  0.1104 -0.2402  0.1428
 7609PP      PP17713  13.788  11.009   0.774 -0.1617 -0.0164  0.1112
 7610PP      PP17714   4.568  10.299   1.237  0.1469  0.0065 -0.0633
 7611PP      PP17715   1.118   0.748   1.200  0.1136  0.0588  0.1223
 7612PP      PP17716   5.182   8.422   3.997  0.1693  0.0239  0.0970
 7613PP      PP17717  11.197  13.299  11.302  0.0921  0.1649  0.1020
 7614PP      PP17718   1.151  15.847  11.990  0.1493 -0.2395  0.0633
 7615PP      PP17719   3.248   4.200   4.022 -0.0871  0.0579 -0.1061
 7616PP      PP17720   2.909   8.252   9.867  0.0328 -0.3559  0.0350
 7617PP      PP17721   7.404   9.545   3.862 -0.0349 -0.2000  0.1309
 7618PP      PP17722  11.764   4.510   8.665 -0.0352 -0.0070 -0.4638
 7619PP      PP17723   3.664  15.604  11.992 -0.2780  0.0603 -0.0991
 7620PP      PP17724   6.930  13.099   9.078 -0.2518 -0.2550  0.3503
 7621PP      PP17725   8.458  11.590  12.940  0.4489  0.2395 -0.1052
 7622PP      PP17726  14.567  14.532  12.518  0.2483 -0.1100 -0.3158
 7623PP      PP17727   1.846   4.771  12.215 -0.0693  0.1178 -0.0958
 7624PP      PP17728   5.860   3.951  10.382  0.0341 -0.0252 -0.1641
 7625PP      PP17729   8.088   4.149  11.944 -0.0894 -0.2192 -0.1833
 7626PP      PP17730  12.910   8.365  10.252 -0.2566  0.1461  0.0548
 7627PP      PP17731  15.526   3.208  11.948  0.0763 -0.2663 -0.0377
 7628PP      PP17732   2.834   7.190   0.971  0.0116  0.2500 -0.2647
 7629PP      PP17733   7.354  10.004   2.426  0.2795 -0.1382  0.0993
 7630PP      PP17734   1.108   8.535   1.171  0.2214  0.0737  0.1650
 7631PP      PP17735   9.941   1.058   3.596 -0.0063 -0.0964 -0.0597
 7632PP      PP17736   4.092   1.552  10.646  0.2183  0.0597 -0.0823
 7633PP      PP17737   4.309   5.332   2.776  0.2112 -0.1186  0.2133
 7634PP      PP17738   7.720   1.810   8.620  0.1218  0.1205  0.0076
 7635PP      PP17739   5.217  10.097  10.436 -0.0740  0.0611  0.0325
 7636PP      PP17740   8.659  14.231   9.054 -0.2192  0.2816  0.0650
 7637PP      PP17741  13.109  10.430  12.925 -0.0351  0.1731 -0.1426
 7638PP      PP17742  11.042   0.566  11.623 -0.2564 -0.1394 -0.1990
 7639PP      PP17743   1.903   8.628  12.305 -0.0746 -0.2905  0.0011
 7640PP      PP17744   6.443   3.672  12.284 -0.1460  0.1300  0.0659
 7641PP      PP17745   7.130   8.792  13.434 -0.2190  0.0428 -0.1800
 7642PP      PP17746   2.862   5.682  11.076 -0.0905  0.0786  0.1549
 7643PP      PP17747   1.753   0.825   2.907  0.0362  0.1251  0.0517
 7644PP      PP17748   2.827   2.361  12.397 -0.0477  0.2813 -0.1436
 7645PP      PP17749  11.093   9.092   1.020  0.0779  0.1578 -0.0747
 7646PP      PP17750   0.144   7.713   2.139  0.2159  0.1408 -0.3460
 7647PP      PP17751  10.532  15.851  10.900  0.0299 -0.0142 -0.0145
 7648PP      PP17752   8.019  15.360   2.060 -0.1163  0.2455 -0.2452
 7649PP      PP17753   3.201   2.370   1.175  0.3247  0.1081 -0.1415
 7650PP      PP17754   2.704  10.256   9.630  0.2294  0.2106  0.0494
 7651PP      PP17755  11.535  13.810   9.381  0.1419 -0.1784 -0.1102
 7652PP      PP17756   5.134  15.610  13.322  0.2663  0.0734  0.1245
 7653PP      PP17757   4.132  11.561   9.468 -0.1134 -0.2839 -0.1127
 7654PP      PP17758   5.663  14.196  10.775  0.0730 -0.1459  0.3643
 7655PP      PP17759   5.928  12.437  10.349 -0.0460 -0.2539 -0.2696
 7656PP      PP17760  11.325   2.213   9.037  0.1303 -0.1298 -0.2165
 7657PP      PP17761   5.112   2.790  12.433  0.0992 -0.3585  0.1194
 7658PP      PP17762   0.386  10.536   9.352  0.1296  0.0067 -0.1268
 7659PP      PP17763  12.681   2.226   0.161 -0.1304 -0.0673  0.1673
 7660PP      PP17764   4.838   8.040   3.805 -0.2778  0.1908 -0.2221
 7661PP      PP17765  13.958   1.963   4.114  0.0711  0.0452 -0.1663
 7662PP      PP17766  13.596  13.321  10.152  0.0940 -0.0680  0.0008
 7663PP      PP17767   0.452  13.187  10.050 -0.0385 -0.0422  0.3137
 7664PP      PP17768   1.879   2.947   9.627  0.1642 -0.0530 -0.0711
 7665PP      PP17769   7.071  13.731  10.587  0.0607  0.2091 -0.0684
 7666PP      PP17770   3.977   6.104   4.049  0.0371 -0.1882  0.0009
 7667PP      PP17771   7.818   3.318  11.030 -0.1690  0.1165  0.0687
 7668PP      PP17772  11.374   4.982   4.398 -0.0784  0.0165  0.4960
 7669PP      PP17773   3.816   5.686   5.298  0.0964 -0.0849  0.0168
 7670PP      PP17774  15.386   5.758   4.106 -0.1026 -0.2000 -0.1051
 7671PP      PP17775  14.578  13.413   3.007  0.0280 -0.3057 -0.2902
 7672PP      PP17776   9.470   9.884   4.763 -0.5500  0.1652  0.1942
 7673PP      PP17777   5.395  14.060   3.872 -0.0747  0.1969  0.0428
 7674PP      PP17778   2.285   0.783  10.778  0.2609 -0.1507 -0.2808
 7675PP      PP17779   1.318   1.336   1.985  0.1705  0.2693  0.0640
 7676PP      PP17780   3.391  14.729  10.042 -0.2091  0.2290  0.1483
 7677PP      PP17781  11.892   4.543   1.015 -0.2087 -0.2667 -0.1723
 7678PP      PP17782   8.670  15.713   2.514  0.4281 -0.2334 -0.3713
 7679PP      PP17783  11.461   1.590  12.279  0.0088 -0.0166  0.1421
 7680PP      PP17784   3.073  15.424  12.916  0.1360 -0.1803  0.0241
 7681PP      PP17785   2.961  15.590   3.085 -0.4253 -0.0405  0.0624
 7682PP      PP17786   0.561   8.888   1.017  0.0209 -0.6035 -0.0200
 7683PP      PP17787   3.380   2.796   4.702  0.3371  0.2932 -0.1459
 7684PP      PP17788   9.062  10.827   8.400  0.0556 -0.0527 -0.0343
 7685PP      PP17789  12.346   0.452   0.373 -0.0514 -0.1569 -0.1236
 7686PP      PP17790   1.123   2.147   3.941 -0.1827 -0.0203  0.3225
 7687PP      PP17791   3.243   2.406   2.232  0.0401  0.0924  0.0201
 7688PP      PP17792   6.788   3.907   0.451  0.1470  0.0855  0.0076
 7689PP      PP17793  15.344   2.662   3.654 -0.2399  0.3045 -0.1190
 7690PP      PP17794   6.543  14.255  13.350  0.0459 -0.1365 -0.0304
 7691PP      PP17795   3.519   0.143  12.206  0.2343 -0.0733 -0.0414
 7692PP      PP17796  14.432   7.272  11.009  0.0851  0.2954 -0.0115
 7693PP      PP17797  15.517   0.068  12.283 -0.0884  0.4256  0.3186
 7694PP      PP17798   4.193   4.852   4.309 -0.1416  0.0750  0.0476
 7695PP      PP17799   0.985  15.171   2.315  0.0869 -0.1626 -0.2602
 7696PP      PP17800  12.529  10.625   0.358 -0.0289  0.1452  0.0008
 7697PP      PP17801  13.444   6.300   2.987 -0.0326  0.0596  0.1301
 7698PP      PP17802  10.596  10.719   9.759  0.2972  0.0479 -0.0050
 7699PP      PP17803  10.468   2.477   9.984  0.2147 -0.1402  0.0342
 7700PP      PP17804   0.997   5.991  12.587  0.3746 -0.0467  0.0807
 7701PP      PP17805  13.313   2.991  12.308  0.0515  0.0766 -0.3308
 7702PP      PP17806   8.555  14.989   9.878 -0.2870  0.2761 -0.1468
 7703PP      PP17807   2.805   8.377   5.491  0.0043  0.1361  0.2021
 7704PP      PP17808   8.408  10.339  11.193 -0.0066  0.2345 -0.0010
 7705PP      PP17809   5.567  10.178   2.024 -0.0838  0.1131  0.0609
 7706PP      PP17810  13.940   6.506  11.324  0.2061  0.1037  0.0931
 7707PP      PP17811   0.420   3.773   2.053 -0.0117  0.1978  0.1319
 7708PP      PP17812   3.309  15.216  12.149 -0.3156  0.2110  0.0523
 7709PP      PP17813   5.175   4.215  12.108 -0.0243  0.0103  0.0268
 7710PP      PP17814  10.567   3.272  10.385 -0.3325  0.0216  0.1885
 7711PP      PP17815  15.785   5.801   2.184 -0.2153 -0.2713 -0.2816
 7712PP      PP17816   3.057  13.194   2.062  0.2860 -0.2003 -0.0253
 7713PP      PP17817  14.461  12.895  10.546  0.1066  0.2907  0.3419
 7714PP      PP17818   4.431   5.111   1.563  0.2089 -0.2009 -0.1189
 7715PP      PP17819   6.498  14.852   1.120  0.1511 -0.5400 -0.0232
 7716PP      PP17820   3.695   2.299   1.827 -0.1078 -0.3182 -0.0449
 7717PP      PP17821  13.397   6.503   1.437 -0.1078  0.4252 -0.2072
 7718PP      PP17822  12.706   3.255   1.005 -0.3498  0.0182  0.0979
 7719PP      PP17823  14.357  10.846   2.053 -0.0380  0.0311  0.0109
 7720PP      PP17824   9.180  14.820  11.822 -0.0869 -0.0432  0.1168
 7721PP      PP17825   5.871  14.769   2.188  0.2235 -0.0551 -0.0748
 7722PP      PP17826   9.763   9.785  12.508 -0.0906 -0.4241  0.0801
 7723PP      PP17827  14.756   1.097   3.305 -0.2697  0.4090  0.1855
 7724PP      PP17828   9.906   0.338  13.077  0.1930  0.1596  0.0037
 7725PP      PP17829   9.006   4.894   0.397  0.1401  0.0191 -0.1944
 7726PP      PP17830  10.772  13.152   9.560  0.0334  0.1175 -0.0981
 7727PP      PP17831   5.404  13.221  11.202  0.3099  0.0233  0.0841
 7728PP      PP17832   4.959  11.460  13.243  0.2359  0.0333 -0.1541
 7729PP      PP17833   9.661  13.616   9.875 -0.2988 -0.2088 -0.0285
 7730PP      PP17834   0.548  15.392   0.569  0.3438 -0.0485 -0.1358
 7731PP      PP17835  12.318  14.174   3.167  0.0918 -0.1149  0.3124
 7732PP      PP17836   2.780   7.021   4.721 -0.1518  0.2597  0.1246
 7733PP      PP17837   4.844  13.342  10.018  0.0535 -0.2048  0.3586
 7734PP      PP17838   4.957   3.298   9.794  0.2653 -0.0848 -0.2095
 7735PP      PP17839  13.156  15.005   2.326 -0.0802  0.1330  0.0061
 7736PP      PP17840   5.239  15.320  11.822 -0.1043  0.0869 -0.4635
 7737PP      PP17841  10.970   9.803   9.500  0.2290  0.2890 -0.0864
 7738PP      PP17842  14.251   5.991  13.303  0.2073  0.2013  0.1298
 7739PP      PP17843   7.363   9.009  10.865  0.1134  0.1490  0.1577
 7740PP      PP17844   0.366  15.420  10.651  0.1169 -0.0977  0.1656
 7741PP      PP17845   9.020   1.696   3.505  0.1109  0.0197 -0.3716
 7742PP      PP17846   9.325   1.913  10.309  0.1921  0.0442 -0.2036
 7743PP      PP17847   9.985  15.846   1.055 -0.3911 -0.3647  0.0545
 7744PP      PP17848  13.335   7.140  11.080 -0.0015 -0.1123 -0.0268
 7745PP      PP17849  12.479   5.081  11.855 -0.0743 -0.1517  0.0382
 7746PP      PP17850  10.029   7.432   0.800  0.1876 -0.3689 -0.1333
 7747PP      PP17851  13.339   1.905   1.227  0.2272 -0.2930 -0.0183
 7748PP      PP17852  14.831   1.365  11.383 -0.1991 -0.0019 -0.2560
 7749PP      PP17853  15.122   5.840   3.375 -0.0252 -0.0986  0.2221
 7750PP      PP17854   4.181   4.791   3.725 -0.0566 -0.1936 -0.2086
 7751PP      PP17855   8.058   2.443   2.397 -0.0931  0.1161  0.2485
 7752PP      PP17856  13.413   6.964  12.467 -0.3308 -0.1758  0.1792
 7753PP      PP17857  14.243   6.915   4.235  0.0691 -0.0759 -0.2320
 7754PP      PP17858   4.103  14.752  13.377  0.0341 -0.0356  0.1801
 7755PP      PP17859   7.534   6.517  10.077  0.1350 -0.1706 -0.0368
 7756PP      PP17860   4.169   1.826   2.722 -0.2389 -0.1927 -0.1675
 7757PP      PP17861   9.771   0.680   1.442  0.2122  0.2825 -0.0008
 7758PP      PP17862   7.157  11.466   1.351  0.2118  0.1259 -0.0083
 7759PP      PP17863   5.655  11.094  10.534  0.0758 -0.0821  0.0584
 7760PP      PP17864  11.563   3.061  12.747 -0.2765 -0.3290 -0.0098
 7761PP      PP17865  12.946   1.796   3.792 -0.2908 -0.0212  0.0549
 7762PP      PP17866  11.546   1.571   2.935  0.2102 -0.0420 -0.3019
 7763PP      PP17867   9.919  11.466  12.072 -0.1402 -0.1667 -0.1576
 7764PP      PP17868  10.723   0.963   1.010 -0.2294  0.0029  0.0828
 7765PP      PP17869   9.408  11.447  11.940 -0.0503  0.2134  0.2863
 7766PP      PP17870   6.588   4.501   3.643 -0.0380  0.1555 -0.1159
 7767PP      PP17871   6.945   3.669  10.804  0.3692 -0.3607 -0.1429
 7768PP      PP17872  14.138   3.272   2.806  0.3108 -0.1014  0.0553
 7769PP      PP17873   3.399   0.995   3.213 -0.2008 -0.0269 -0.0053
 7770PP      PP17874  14.913   2.360   9.294 -0.0107  0.1129  0.1082
 7771PP      PP17875   3.063   6.315  12.674 -0.1409  0.2231  0.2173
 7772PP      PP17876   4.802   9.450   4.023  0.1490  0.1313  0.0308
 7773PP      PP17877   9.919   9.330   8.677  0.0443  0.0171 -0.0856
 7774PP      PP17878  12.555   0.170   9.188 -0.2259 -0.5558  0.2435
 7775PP      PP17879   5.751  11.406  12.118  0.0910  0.0577 -0.2286
 7776PP      PP17880   8.011   2.046   1.153  0.1567  0.2303 -0.0776
 7777PP      PP17881  14.593   9.366  12.393 -0.0704 -0.2040  0.0158
 7778PP      PP17882   9.313  11.658   3.007 -0.0455 -0.2020 -0.0792
 7779PP      PP17883  15.508   4.615   4.844  0.0586  0.2098  0.2683
 7780PP      PP17884   3.371  15.851   2.951 -0.1287 -0.0703  0.1606
 7781PP      PP17885   2.261   8.370   2.232  0.0333 -0.1425  0.3388
 7782PP      PP17886   1.753   7.237   3.913  0.3840  0.3147  0.1326
 7783PP      PP17887   4.720   2.202   3.522  0.0406 -0.0246  0.1764
 7784PP      PP17888   7.864   2.659  13.349 -0.0606  0.1702  0.1030
 7785PP      PP17889   3.603  13.902  10.931  0.3974  0.1087  0.2173
 7786PP      PP17890   6.757  11.845  10.482  0.1177 -0.1915  0.0635
 7787PP      PP17891  15.003  13.907  13.104 -0.1017 -0.3084 -0.2126
 7788PP      PP17892  11.906  10.859  11.919  0.2313 -0.0300  0.0342
 7789PP      PP17893  14.133   2.922   5.196  0.1632  0.4380  0.4281
 7790PP      PP17894   3.618   2.340  10.575 -0.4668 -0.3199  0.0727
 7791PP      PP17895   8.445   0.799  11.135  0.2225 -0.0794 -0.1294
 7792PP      PP17896  12.589   3.516  10.148  0.0105 -0.0975  0.1008
 7793PP      PP17897  10.972  10.859  10.362 -0.0825  0.0980 -0.1450
 7794PP      PP17898   7.837   1.563   3.441  0.0424  0.4116 -0.2820
 7795PP      PP17899  13.521  14.361  11.024 -0.3070 -0.1378 -0.2142
 7796PP      PP17900   7.421  14.977  13.444  0.0051  0.1902  0.1743
 7797PP      PP17901   7.697   0.434  11.455  0.0849 -0.5827 -0.1267
 7798PP      PP17902   4.785   6.395   5.256  0.0778 -0.1901 -0.0397
 7799PP      PP17903  14.121   9.164  11.051 -0.1723  0.0999 -0.2500
 7800PP      PP17904   3.535  13.090   9.452 -0.0683  0.0369  0.2387
 7801PP      PP17905  15.336   1.649   3.889  0.1615 -0.1093 -0.0535
 7802PP      PP17906  12.052  10.198  12.318  0.0908  0.1192  0.0496
 7803PP      PP17907   8.026   0.513   3.546  0.2325  0.0173  0.0418
 7804PP      PP17908   6.706  11.918   3.794 -0.1945 -0.0947 -0.0246
 7805PP      PP17909   7.762   8.271   2.600  0.3733 -0.2994  0.1234
 7806PP      PP17910   9.942  12.625   2.741  0.1369  0.0766 -0.0629
 7807PP      PP17911  15.698   6.775   9.679  0.1487  0.1686  0.3920
 7808PP      PP17912   7.135   3.007   3.583  0.2534 -0.1270  0.1723
 7809PP      PP17913   7.523   9.863  12.834  0.1186  0.0169  0.1753
 7810PP      PP17914   0.397   3.281  11.274 -0.0847 -0.0797  0.1363
 7811PP      PP17915   1.426  12.739  12.358  0.1509  0.1368 -0.0779
 7812PP      PP17916   4.291   0.224   1.142 -0.0037  0.2592 -0.2957
 7813PP      PP17917   1.234   7.990   4.788  0.1676 -0.0366 -0.0104
 7814PP      PP17918   3.937   0.466  10.344  0.2669 -0.0902  0.3727
 7815PP      PP17919  12.798   9.153   8.638 -0.0643 -0.1802 -0.0604
 7816PP      PP17920   5.700   7.942   4.735 -0.2799 -0.2241 -0.1505
 7817PP      PP17921   6.180  15.206   2.740 -0.2193 -0.0719 -0.4085
 7818PP      PP17922   7.130   3.490   3.428 -0.1113  0.1072 -0.2261
 7819PP      PP17923  14.021   4.879   0.612 -0.1421 -0.1291 -0.0130
 7820PP      PP17924   7.267  12.722   0.873  0.0362 -0.1258 -0.4913
 7821PP      PP17925  11.545  14.249   2.849 -0.0976 -0.2592 -0.0410
 7822PP      PP17926  13.725   2.367   2.364 -0.4951 -0.2938  0.0556
 7823PP      PP17927   8.413  10.025  13.266 -0.0667  0.2180  0.0233
 7824PP      PP17928   6.120   3.370   1.441 -0.2474 -0.0082 -0.1553
 7825PP      PP17929   0.417  12.112   0.616  0.0771 -0.0721 -0.2093
 7826PP      PP17930   4.728   9.560  10.051 -0.0379  0.1801  0.3848
 7827PP      PP17931  11.039   1.826   1.024 -0.1179  0.0478  0.3127
 7828PP      PP17932  10.802   6.376   1.819  0.2042  0.4329  0.0202
 7829PP      PP17933   8.115   7.947  11.295 -0.1034  0.0730 -0.2932
 7830PP      PP17934  10.825   6.061   2.954  0.2367  0.0682 -0.0838
 7831PP      PP17935  10.118  11.770   3.725  0.0653 -0.0575  0.0557
 7832PP      PP17936  15.392  15.357   9.539 -0.3244  0.1762 -0.0339
 7833PP      PP17937   5.517   6.329   1.217  0.1318 -0.0173 -0.2519
 7834PP      PP17938   6.552   9.159   4.886  0.0888 -0.0303 -0.0208
 7835PP      PP17939  13.190   1.823  10.745 -0.1005 -0.1188  0.1130
 7836PP      PP17940  14.659  11.968  13.224  0.1683  0.0056  0.2375
 7837PP      PP17941  12.216   5.909   2.094 -0.1440 -0.2483  0.0740
 7838PP      PP17942  10.327  14.984   1.048  0.1026 -0.2410  0.1600
 7839PP      PP17943   5.061  13.021  10.881  0.0190  0.2284  0.2324
 7840PP      PP17944   8.908  12.372  11.682  0.0043  0.2095 -0.0481
 7841PP      PP17945   4.943  13.197   4.114 -0.0350  0.0047 -0.0903
 7842PP      PP17946  11.493  11.665  13.019 -0.2589  0.1778  0.0887
 7843PP      PP17947  11.202   9.433  12.148 -0.1692  0.3741 -0.2202
 7844PP      PP17948   7.743  15.597  12.666  0.0719  0.3296 -0.0018
 7845PP      PP17949   0.187   3.609   2.533 -0.2187 -0.1308  0.0339
 7846PP      PP17950   2.203  15.068  11.491  0.1355  0.3765  0.1132
 7847PP      PP17951  13.838  14.006   4.079  0.2087  0.0640  0.0364
 7848PP      PP17952   9.820   9.410  11.546  0.0341 -0.0475  0.0913
 7849PP      PP17953   4.945  15.845  12.285  0.0693  0.2306  0.0775
 7850PP      PP17954   7.961   7.097   3.014  0.1700 -0.0040  0.1702
 7851PP      PP17955   1.344   3.070   1.611 -0.1073  0.1339  0.2141
 7852PP      PP17956   9.381   7.093  12.984 -0.3268 -0.3560  0.2033
 7853PP      PP17957   6.224  11.236   1.438 -0.1453  0.1854 -0.1164
 7854PP      PP17958  11.026   0.770   2.566  0.1578  0.3002  0.0220
 7855PP      PP17959  12.903   6.039   4.455 -0.0960  0.3172  0.1214
 7856PP      PP17960  11.990   3.666  13.231  0.0687 -0.1186  0.3941
 7857PP      PP17961   9.934  10.235   1.229  0.0092  0.1787 -0.1064
 7858PP      PP17962   8.671   2.794   9.056  0.0297 -0.0334 -0.2274
 7859PP      PP17963   5.450  11.497   3.337 -0.1014  0.0164 -0.4962
 7860PP      PP17964   9.430   4.886   1.966 -0.3918 -0.3190  0.2211
 7861PP      PP17965  12.153  15.367   3.830  0.0415  0.0092  0.1049
 7862PP      PP17966   9.047   8.293  12.164  0.0352 -0.1184  0.1441
 7863PP      PP17967  12.670   1.133  12.690  0.0170  0.0342  0.3388
 7864PP      PP17968   9.335   1.927  10.845  0.2067 -0.0990  0.1379
 7865PP      PP17969  11.289   5.279  12.570  0.2623  0.2573 -0.0942
 7866PP      PP17970   8.959  13.274  13.419 -0.1689 -0.1550  0.1861
 7867PP      PP17971  12.122  14.212  10.138 -0.0015 -0.0700 -0.1082
 7868PP      PP17972  11.628   8.309   3.173  0.0911 -0.0677  0.0193
 7869PP      PP17973   8.648   2.023   2.874  0.0232 -0.0580 -0.1799
 7870PP      PP17974  11.248  14.915   9.924  0.0944  0.1969  0.2187
 7871PP      PP17975  14.549  13.492   1.402 -0.0957  0.0174 -0.0847
 7872PP      PP17976   7.915   6.541   3.640  0.1503  0.1681 -0.0329
 7873PP      PP17977   7.750   9.403  11.372  0.0471 -0.1314 -0.1528
 7874PP      PP17978   0.375   7.089   1.525  0.0785 -0.0394  0.1118
 7875PP      PP17979   2.407  13.292   2.973  0.1790 -0.1218 -0.4362
 7876PP      PP17980  11.063   9.767   0.412 -0.2136 -0.3024 -0.0098
 7877PP      PP17981  15.645   3.646  12.800 -0.1621 -0.1622 -0.2493
 7878PP      PP17982   1.205   7.617   1.424  0.2279  0.0998  0.0684
 7879PP      PP17983  12.113  14.839   1.909 -0.3985  0.1722  0.0266
 7880PP      PP17984   4.750   2.652   0.198  0.0541  0.1400 -0.0515
 7881PP      PP17985  14.496   2.582  10.947  0.1581 -0.1104  0.3872
 7882PP      PP17986   6.431  11.792   0.714  0.2698 -0.2384  0.1899
 7883PP      PP17987   3.291   3.342   4.076  0.2622 -0.2867 -0.2256
 7884PP      PP17988  14.110   7.773   0.721  0.2696 -0.4540  0.2366
 7885PP      PP17989  15.724  11.092  10.475  0.0472  0.2663 -0.3894
 7886PP      PP17990  14.031   2.777   2.152  0.1384 -0.0268  0.2113
 7887PP      PP17991  15.506   1.119   8.785 -0.0987  0.0856  0.2160
 7888PP      PP17992  11.614   8.539  10.659 -0.0970 -0.0959 -0.4873
 7889PP      PP17993   0.202   6.757   2.085  0.1537 -0.0608 -0.4157
 7890PP      PP17994  13.914   2.153  13.157 -0.1922 -0.0581 -0.1392
 7891PP      PP17995  12.213   3.597   0.711  0.0108  0.1796 -0.1374
 7892PP      PP17996  12.486   6.517  11.035 -0.3960  0.0201  0.0893
 7893PP      PP17997   3.175   4.789   3.190 -0.1324 -0.0579 -0.1296
 7894PP      PP17998   5.790  15.372   0.954  0.0933 -0.0543  0.1601
 7895PP      PP17999   5.642  12.757   2.469  0.3168  0.0476 -0.1926
 7896PP      PP18000  10.977   5.819   0.257  0.1901 -0.0196  0.0954
 7897PP      PP18001   9.576   3.005  11.583 -0.1426 -0.0164  0.2778
 7898PP      PP18002  12.277   8.723   9.452  0.0385 -0.1190 -0.0867
 7899PP      PP18003   9.186   8.695  10.015 -0.2693  0.0052  0.0573
 7900PP      PP18004  11.434   4.793   0.968 -0.1881 -0.0850 -0.0770
 7901PP      PP18005  15.410  12.524  10.959 -0.0977 -0.1655  0.0761
 7902PP      PP18006   8.845   9.832  10.471  0.0610  0.2604 -0.0369
 7903PP      PP18007   4.765   9.338   1.414  0.0409 -0.1207  0.3365
 7904PP      PP18008   7.521  14.664   3.333 -0.0687  0.1265 -0.2031
 7905PP      PP18009  10.361  10.945   1.564 -0.1680 -0.2340 -0.0383
 7906PP      PP18010   5.556   6.249  12.191  0.1123  0.0965 -0.1432
 7907PP      PP18011   6.511  13.587   1.876 -0.0067 -0.0624  0.0048
 7908PP      PP18012   1.946   0.228   3.670  0.0222  0.0550 -0.0876
 7909PP      PP18013  13.047   0.655   9.209  0.0006  0.1117 -0.1520
 7910PP      PP18014   4.982  10.406  11.704 -0.0071  0.4424 -0.0093
 7911PP      PP18015   2.835   6.129   1.284 -0.1410 -0.0313 -0.3030
 7912PP      PP18016  14.587   2.952   1.493  0.2067  0.1784  0.0332
 7913PP      PP18017   6.639   3.419  10.468 -0.1534  0.0194 -0.2293
 7914PP      PP18018   6.997  14.965  12.325 -0.2433 -0.1383  0.2262
 7915PP      PP18019   0.686  15.445   9.181  0.2326 -0.0438 -0.1740
 7916PP      PP18020   6.266   0.454  11.022  0.0074 -0.1059  0.0205
 7917PP      PP18021  15.764   7.218   1.436  0.1680 -0.1361 -0.4059
 7918PP      PP18022  12.363  12.532  10.851 -0.0650  0.0480 -0.0065
 7919PP      PP18023   7.882  11.663   3.748  0.0700 -0.2473 -0.0989
 7920PP      PP18024   9.541   8.447   0.596  0.0921  0.1598  0.1711
 7921PP      PP18025  14.220   4.573  13.314 -0.1143  0.1032  0.1553
 7922PP      PP18026   8.400   6.014  11.394 -0.0632 -0.1110  0.1346
 7923PP      PP18027   6.797  14.765   9.643 -0.1174  0.1366 -0.1610
 7924PP      PP18028   2.911   8.515   1.136  0.0440 -0.0395 -0.0988
 7925PP      PP18029  11.098   3.519   4.139  0.3083  0.1904 -0.1441
 7926PP      PP18030   1.080   7.107  11.614 -0.3023  0.0248 -0.1159
 7927PP      PP18031   2.256   4.229  12.563 -0.2274 -0.2174  0.3153
 7928PP      PP18032   5.362  12.521  12.825 -0.1943  0.2555 -0.2061
 7929PP      PP18033   2.892   0.933   9.539 -0.0212 -0.2792 -0.1665
 7930PP      PP18034   6.503   6.968   3.627  0.3596  0.0730 -0.1056
 7931PP      PP18035   1.884   9.249   0.436  0.2617 -0.0041  0.0412
 7932PP      PP18036   2.027   5.201   9.952 -0.0839  0.1782 -0.1711
 7933PP      PP18037   3.079   0.102   0.586  0.2003  0.0369 -0.0699
 7934PP      PP18038  12.270   4.948  11.281 -0.1297 -0.0130 -0.0814
 7935PP      PP18039   6.806   4.986   3.734 -0.1019 -0.2249  0.1436
 7936PP      PP18040   2.963   4.129   5.039 -0.0748  0.2073  0.0800
 7937PP      PP18041  14.920  10.832  11.618  0.1788  0.0944 -0.1609
 7938PP      PP18042   9.033   8.912   9.305 -0.1836 -0.2196  0.4077
 7939PP      PP18043   4.984   6.708   3.237  0.2024 -0.2564 -0.3322
 7940PP      PP18044   7.691   5.148   2.337  0.0176  0.1787 -0.1342
 7941PP      PP18045   7.028  15.563   9.408 -0.0661  0.0561  0.0630
 7942PP      PP18046  14.225   7.800  13.411 -0.0245 -0.2315  0.1891
 7943PP      PP18047   4.709  15.773  10.251 -0.1945  0.0149 -0.1404
 7944PP      PP18048  10.121   5.282  12.323 -0.1758 -0.1690 -0.2141
 7945PP      PP18049  13.491   8.215   3.167  0.3844 -0.0092  0.0701
 7946PP      PP18050  12.439  14.790  12.346 -0.2237  0.0980 -0.0083
 7947PP      PP18051   6.979   4.578  10.599  0.0495  0.1372 -0.3020
 7948PP      PP18052   8.365   9.634   0.414 -0.4857 -0.1360  0.0132
 7949PP      PP18053   0.167   1.240   3.681 -0.2650 -0.2261  0.3037
 7950PP      PP18054  13.713   8.791   2.130 -0.2221  0.2234 -0.1032
 7951PP      PP18055   3.241   7.323   1.772 -0.1597  0.0131  0.0288
 7952PP      PP18056   1.913   1.648   8.849  0.2923  0.0324  0.1331
 7953PP      PP18057   0.557   0.757   4.332 -0.6078  0.2904 -0.1497
 7954PP      PP18058  15.150  10.001  11.573  0.3684  0.2127 -0.2888
 7955PP      PP18059  12.018   9.575  11.500 -0.0137 -0.3635 -0.3451
 7956PP      PP18060  13.333  10.110   2.709  0.4150  0.0822 -0.2506
 7957PP      PP18061  10.223  13.815   1.308 -0.4016 -0.0881  0.0748
 7958PP      PP18062  14.198  12.742   9.723 -0.1087 -0.2343  0.1875
 7959PP      PP18063   1.039  13.185   8.044  0.1457  0.1599  0.4083
 7960PP      PP18064   4.554   7.412  13.068  0.2233 -0.3016 -0.0866
 7961PP      PP18065   6.734   5.173  10.636  0.0023 -0.3768 -0.0636
 7962PP      PP18066   8.286  12.022   3.975  0.1236 -0.1364 -0.1768
 7963PP      PP18067   7.501  10.448  13.050 -0.3633  0.0299 -0.1548
 7964PP      PP18068   3.598   4.633  10.648 -0.0612  0.0529 -0.0144
 7965PP      PP18069  15.808  14.442   3.046  0.0107 -0.0952 -0.1786
 7966PP      PP18070   7.908   6.908  12.812 -0.0386 -0.0637 -0.1579
 7967PP      PP18071   5.222   6.957  13.405 -0.0816  0.0801  0.0397
 7968PP      PP18072   8.436  10.789   4.788  0.0886 -0.1701  0.0727
 7969PP      PP18073   1.741  10.328   4.566  0.0388  0.1660 -0.3356
 7970PP      PP18074  13.489  10.990  12.247  0.0582 -0.4771 -0.4219
 7971PP      PP18075  14.859   2.939  10.898 -0.1629  0.3371 -0.0232
 7972PP      PP18076   4.429   7.091  11.406  0.0562 -0.1373  0.1254
 7973PP      PP18077   5.067  11.104   2.339  0.1933  0.0403  0.0282
 7974PP      PP18078  11.593   2.323  12.123  0.1118  0.0987  0.0175
 7975PP      PP18079   7.267   4.390  11.432 -0.2787  0.3347 -0.1753
 7976PP      PP18080  11.477   5.880   0.297  0.2047 -0.0372 -0.0496
 7977PP      PP18081  11.319   9.074  11.751  0.4566  0.0377  0.4053
 7978PP      PP18082  14.664   1.124  10.781 -0.1061 -0.2877 -0.0080
 7979PP      PP18083   8.358   8.959  10.481 -0.0627 -0.3375 -0.1547
 7980PP      PP18084  15.238   6.685  11.582  0.2283  0.0061  0.3760
 7981PP      PP18085   8.385   0.768   1.232 -0.4227  0.0813  0.1824
 7982PP      PP18086  15.388  13.063   3.524  0.1707 -0.0083  0.1482
 7983PP      PP18087  15.607   0.171   3.267  0.0209  0.1079  0.1616
 7984PP      PP18088  14.956  14.976  10.750  0.0063  0.1584  0.0706
 7985PP      PP18089   3.298   2.069  10.877  0.2685  0.1109 -0.0571
 7986PP      PP18090   9.000   1.072  10.093 -0.0331  0.0114 -0.0509
 7987PP      PP18091   8.595   4.057   1.406 -0.2124  0.0623 -0.0248
 7988PP      PP18092  13.174   4.974   1.262  0.1293 -0.1244  0.1106
 7989PP      PP18093  14.341   8.424  10.692 -0.1855 -0.1256 -0.2173
 7990PP      PP18094   0.384   8.043   5.158 -0.1480  0.1041 -0.0843
 7991PP      PP18095  14.564   4.651   3.343  0.1463  0.0574 -0.1249
 7992PP      PP18096   7.705   7.921  12.883 -0.0418  0.0512  0.2597
 7993PP      PP18097  10.739  15.054   8.662  0.0928 -0.2976  0.1011
 7994PP      PP18098   6.870  10.456   0.214  0.0432 -0.2073 -0.2220
 7995PP      PP18099   4.315   9.339  12.312 -0.1958  0.3223 -0.1061
 7996PP      PP18100  10.279   3.283   4.025 -0.1660 -0.0603 -0.2081
 7997PP      PP18101  12.159   2.011   0.045 -0.1956 -0.1632  0.1203
 7998PP      PP18102  14.610  13.694   1.938 -0.0275  0.1603 -0.0573
 7999PP      PP18103  12.716   6.839   0.242  0.0800  0.0525  0.2955
 8000PP      PP18104   4.199   2.314   2.790  0.0833  0.0739  0.1634
 8001PP      PP18105   9.282   2.110  11.301 -0.1218 -0.0403  0.3415
 8002PP      PP18106  12.821  10.118  10.637  0.0182  0.1893 -0.0776
 8003PP      PP18107  11.984  14.734  12.983  0.0361 -0.0562  0.0311
 8004PP      PP18108  10.355   2.931  11.670  0.0407 -0.2139  0.0194
 8005PP      PP18109   8.393  10.174   8.578 -0.1635 -0.0560 -0.2075
 8006PP      PP18110   8.940  10.763   1.703 -0.0972 -0.0825  0.1506
 8007PP      PP18111  10.736  12.687  11.311  0.0262 -0.2092  0.1217
 8008PP      PP18112   2.433   0.315   9.737 -0.2199 -0.1294 -0.2691
 8009PP      PP18113   8.353  14.135   9.857  0.2853 -0.0849 -0.2158
 8010PP      PP18114   9.380  15.039   0.933 -0.2092 -0.0282 -0.0002
 8011PP      PP18115   5.745  13.096   3.803  0.0783  0.3521  0.1715
 8012PP      PP18116  13.979   0.986   2.344  0.1576  0.1601 -0.0159
 8013PP      PP18117   8.133  12.089   3.535  0.0174  0.1656 -0.1215
 8014PP      PP18118  14.505   3.278  10.811 -0.0650 -0.1139 -0.0865
 8015PP      PP18119   7.046  14.080  11.861 -0.0245  0.0710 -0.2988
 8016PP      PP18120   6.227  12.510   9.423  0.2042  0.0434  0.0763
 8017PP      PP18121   3.754  13.764   2.861  0.2957 -0.0136  0.5387
 8018PP      PP18122   4.827   9.024  12.420  0.1543 -0.0134  0.0176
 8019PP      PP18123  10.353  11.737  10.795  0.4582  0.2394  0.0144
 8020PP      PP18124   0.038  13.590   0.073  0.1599  0.0488  0.0100
 8021PP      PP18125   3.218   4.663   9.043  0.2074  0.0827 -0.1967
 8022PP      PP18126   6.369   5.859  13.299 -0.1162  0.0535 -0.0787
 8023PP      PP18127   4.101   5.543  10.502 -0.1442  0.0900  0.0194
 8024PP      PP18128  13.384   4.967  11.261  0.3123  0.1341  0.0038
 8025PP      PP18129   0.675   3.639   8.669 -0.1398  0.0034 -0.2651
 8026PP      PP18130   7.856   5.812  10.253 -0.0800 -0.1088 -0.0524
 8027PP      PP18131   8.452   5.321   9.979 -0.0254 -0.1183 -0.0543
 8028PP      PP18132  12.977   0.780   1.343 -0.0949  0.1713  0.1969
 8029PP      PP18133   2.542   5.212  10.196 -0.0996  0.0957 -0.0006
 8030PP      PP18134   0.260   1.768   0.422 -0.0181 -0.0594 -0.0982
 8031PP      PP18135   7.320   2.469  13.376 -0.0771 -0.1191  0.0212
 8032PP      PP18136  10.342   3.527   1.969 -0.1519 -0.4147  0.2017
 8033PP      PP18137  11.515  14.258  10.715  0.0304  0.0889  0.0618
 8034PP      PP18138   2.969  11.050   3.377  0.0075 -0.1483  0.0925
 8035PP      PP18139   8.133   2.374   1.752  0.2603 -0.1451  0.1322
 8036PP      PP18140   6.744  14.041   1.705 -0.0989 -0.0425  0.0196
 8037PP      PP18141  13.426   3.635   3.066  0.0699  0.4447 -0.2452
 8038PP      PP18142   2.038   9.940   1.764 -0.0695 -0.1216  0.0700
 8039PP      PP18143  10.251  11.597   1.130 -0.0393 -0.2494 -0.3301
 8040PP      PP18144  13.657   5.931  10.742 -0.1509 -0.0212  0.0834
 8041PP      PP18145  12.367   1.709   3.591  0.0274 -0.1746 -0.2132
 8042PP      PP18146   7.016  12.805   9.530  0.0891 -0.2942  0.3466
 8043PP      PP18147   0.282  15.211   1.088 -0.2533  0.2327  0.2089
 8044PP      PP18148  14.324   1.279   2.216 -0.1847  0.4784 -0.2514
 8045PP      PP18149  11.818   5.022   0.771 -0.0897  0.0887  0.1870
 8046PP      PP18150   1.163  13.632  10.871  0.0312  0.2279 -0.0486
 8047PP      PP18151   4.369   6.006   2.820  0.3147 -0.3324  0.1347
 8048PP      PP18152   6.501  11.953   4.530 -0.2679 -0.1015 -0.0047
 8049PP      PP18153   1.188   8.421   3.952 -0.2570  0.1512  0.1485
 8050PP      PP18154   1.675  12.817  11.957  0.1395 -0.1012 -0.4018
 8051PP      PP18155   8.728   1.849   1.971  0.0211 -0.0313  0.2380
 8052PP      PP18156  13.538  13.607   0.703 -0.2910  0.2495 -0.1562
 8053PP      PP18157   7.954  14.474   3.501  0.2107 -0.3180  0.1148
 8054PP      PP18158   3.427   4.955   0.831 -0.1161 -0.0676 -0.1801
 8055PP      PP18159   2.946  12.343   2.287  0.1465  0.2326 -0.2003
 8056PP      PP18160  10.176   1.239   2.375  0.0349 -0.0537 -0.1876
 8057PP      PP18161  15.094   7.910   5.594 -0.1014  0.2612  0.0788
 8058PP      PP18162   1.702   1.031  13.115 -0.0533  0.0989 -0.2044
 8059PP      PP18163  13.734   2.981   2.582 -0.3965 -0.1772  0.1445
 8060PP      PP18164  12.503  11.451   8.372  0.1242 -0.2862 -0.4280
 8061PP      PP18165   0.643   8.987   4.625 -0.0104  0.1143 -0.0074
 8062PP      PP18166   7.348   7.596  12.534  0.1523  0.0211 -0.0350
 8063PP      PP18167   2.356  10.751  12.655 -0.0344 -0.0764 -0.3839
 8064PP      PP18168  10.592  10.542   9.262 -0.0713 -0.0305 -0.0741
 8065PP      PP18169   4.302   3.819   9.594 -0.0382 -0.0072  0.3909
 8066PP      PP18170   8.057   2.378  11.222 -0.3323 -0.3340 -0.0202
 8067PP      PP18171   5.729   1.868  11.034 -0.2072  0.0987 -0.2256
 8068PP      PP18172   1.884   4.263  10.412 -0.3178  0.1795 -0.4087
 8069PP      PP18173   4.176   3.658  10.515  0.0793 -0.2191  0.1286
 8070PP      PP18174  11.936   2.833  12.466 -0.4714 -0.1853 -0.0628
 8071PP      PP18175   0.221   5.532  12.346  0.0373 -0.1237 -0.2795
 8072PP      PP18176   5.789   1.911   0.743  0.2694  0.0137  0.1791
 8073PP      PP18177   3.007   8.334   3.334 -0.2400 -0.0927 -0.2239
 8074PP      PP18178   7.998   8.838  10.117 -0.1336 -0.1122 -0.1594
 8075PP      PP18179   9.501  13.857  12.545  0.0362 -0.1550  0.2975
 8076PP      PP18180   6.319  12.945  12.302  0.1268 -0.1099  0.2708
 8077PP      PP18181  11.247   9.319   9.405 -0.2209 -0.0334  0.0003
 8078PP      PP18182   6.693   1.953   0.634  0.0068  0.0037  0.0357
 8079PP      PP18183   1.332   8.091   1.794  0.0263  0.2593 -0.1691
 8080PP      PP18184  11.097   0.530   1.039  0.1656 -0.1491  0.0641
 8081PP      PP18185  14.397   8.915   9.782 -0.1212  0.0891  0.0253
 8082PP      PP18186   4.909   2.009   4.118  0.1954  0.1956  0.0942
 8083PP      PP18187   1.636  11.480   1.702  0.4826  0.3046  0.0679
 8084PP      PP18188  12.712  13.730  10.387 -0.2124  0.2356  0.0298
 8085PP      PP18189  14.305   7.391  12.532 -0.0613  0.0683  0.2019
 8086PP      PP18190   1.608  15.216  10.192  0.1109 -0.1646  0.0461
 8087PP      PP18191  15.330   2.506   0.181 -0.2932 -0.0468  0.2957
 8088PP      PP18192   3.572   6.851  10.519 -0.3313  0.1780 -0.3030
 8089PP      PP18193  15.812  13.238  13.197  0.0164 -0.0220  0.2253
 8090PP      PP18194   9.546  14.408   2.413 -0.0308 -0.0808 -0.0505
 8091PP      PP18195   2.900  12.047  12.093 -0.3570  0.2786 -0.2809
 8092PP      PP18196  10.107   3.029  11.229 -0.3206  0.2710 -0.4444
 8093PP      PP18197  12.861   3.952  13.322 -0.0067 -0.0105  0.0353
 8094PP      PP18198   2.222  15.491   1.550  0.0850 -0.4829 -0.3056
 8095PP      PP18199   2.339   6.362  12.915  0.0574  0.0118 -0.0551
 8096PP      PP18200  10.721   4.616  12.036 -0.1422 -0.1163 -0.0268
 8097PP      PP18201   0.380  15.823   8.932  0.1010  0.0623 -0.2569
 8098PP      PP18202   6.249   3.535   3.686  0.0917  0.2027  0.2779
 8099PP      PP18203   6.413  14.034   9.936  0.1221  0.0986 -0.1095
 8100PP      PP18204   4.961   3.976   1.032  0.0670  0.1562 -0.3709
 8101PP      PP18205  12.253   5.217  12.818 -0.2462  0.2744 -0.0475
 8102PP      PP18206   5.699   9.439   5.089 -0.2403  0.1442  0.2024
 8103PP      PP18207   0.247   2.516   3.457  0.1264 -0.2334 -0.0648
 8104PP      PP18208   6.679   7.252  13.153  0.0141 -0.1383  0.0600
 8105PP      PP18209   1.848   4.790  10.852 -0.0733  0.0226  0.1629
 8106PP      PP18210   3.454   6.170   0.335 -0.2751 -0.1023  0.2112
 8107PP      PP18211  11.740  15.685   0.109  0.1715 -0.2037  0.2321
 8108PP      PP18212   3.415  10.657   4.508  0.1433 -0.1895 -0.1270
 8109PP      PP18213  10.792   1.697  12.196 -0.1207  0.1699 -0.1816
 8110PP      PP18214  10.583  14.380   0.564  0.1591 -0.0869  0.0011
 8111PP      PP18215   0.722   9.346   3.550 -0.3166  0.0592  0.0431
 8112PP      PP18216   0.090   8.536   5.087  0.4702 -0.1758  0.1139
 8113PP      PP18217   1.966   4.320   3.263  0.0186 -0.0475  0.1149
 8114PP      PP18218   2.435   4.323  10.406  0.0964  0.0174  0.1302
 8115PP      PP18219   8.298  12.050  12.617 -0.3581 -0.2367 -0.2000
 8116PP      PP18220   0.164   5.129  12.014  0.1473 -0.0972 -0.1725
 8117PP      PP18221  15.541   3.279  12.549  0.1321 -0.2343 -0.1896
 8118PP      PP18222   2.499  10.443   0.965  0.1589 -0.1588  0.2901
 8119PP      PP18223   4.545   1.686   0.110 -0.1065  0.0508  0.2455
 8120PP      PP18224  11.930   2.796   4.942  0.3389 -0.0759  0.1507
 8121PP      PP18225   2.972   8.482   0.557 -0.0094  0.0512  0.0780
 8122PP      PP18226  10.399   0.354   9.336 -0.0463  0.0147  0.1268
 8123PP      PP18227   5.547   1.610   1.626 -0.3769 -0.1360 -0.0158
 8124PP      PP18228   2.101   5.987   4.809 -0.0519 -0.4824 -0.0114
 8125PP      PP18229  14.181   8.964   3.537 -0.1213  0.2652  0.0071
 8126PP      PP18230   9.418  13.672   0.683 -0.3220 -0.0939 -0.2322
 8127PP      PP18231   9.231   4.944  12.109  0.3907  0.1824 -0.2489
 8128PP      PP18232   7.960  12.957   8.683 -0.1556 -0.0745 -0.1613
 8129PP      PP18233   2.387   3.259   9.352 -0.0430 -0.0236  0.1420
 8130PP      PP18234  14.539   3.824   9.201  0.1054 -0.2830  0.1275
 8131PP      PP18235  12.302   6.266  12.339  0.0204  0.0008 -0.0320
 8132PP      PP18236   1.297   9.788   4.667 -0.3158  0.0113 -0.1439
 8133PP      PP18237   5.958  11.544  11.645 -0.1790 -0.1278  0.0590
 8134PP      PP18238   5.767   5.100   0.175  0.2239  0.0334 -0.0906
 8135PP      PP18239  10.972   5.855  12.882  0.0093  0.0519 -0.1747
 8136PP      PP18240   8.495   0.747   0.707  0.0841 -0.2609  0.1046
 8137PP      PP18241   9.380  11.827  13.336  0.1771  0.0906 -0.1556
 8138PP      PP18242   4.519  11.302  11.284  0.1852 -0.0027  0.0653
 8139PP      PP18243   3.016   4.884   1.726  0.0355 -0.1176  0.0682
 8140PP      PP18244   2.016   2.674   1.812  0.4345 -0.0099 -0.2759
 8141PP      PP18245  10.917   9.799  11.089 -0.0565  0.0447  0.3699
 8142PP      PP18246  11.144  15.803   2.977 -0.1090  0.0251  0.1320
 8143PP      PP18247  15.546   5.724   0.879 -0.0758  0.0093  0.1304
 8144PP      PP18248  12.655  11.519   3.090  0.1293  0.1529  0.3552
 8145PP      PP18249   2.781   7.386   2.942 -0.0703  0.0449 -0.2647
 8146PP      PP18250  15.578  13.706   1.524 -0.3039 -0.1330  0.0850
 8147PP      PP18251   8.441   0.352   1.630  0.1395 -0.2429  0.2773
 8148PP      PP18252   6.197   6.338   0.079  0.2070  0.3700  0.1148
 8149PP      PP18253  12.827   9.656   0.539 -0.0878  0.1536 -0.0859
 8150PP      PP18254   3.156   4.278   1.096  0.2400 -0.0749 -0.1867
 8151PP      PP18255  15.466   4.878  12.737  0.0329 -0.0960 -0.2409
 8152PP      PP18256   6.372   5.017   2.840  0.0039  0.0652  0.2139
 8153PP      PP18257   7.856  14.904   3.768  0.0843  0.3510  0.1418
 8154PP      PP18258  13.680   8.320   9.127 -0.1498  0.3057 -0.0190
 8155PP      PP18259  14.438  13.949   3.645  0.0934  0.0415  0.1246
 8156PP      PP18260  11.742  11.240  10.691 -0.2622 -0.0676 -0.1649
 8157PP      PP18261  10.646  15.417   3.873  0.3171  0.1356 -0.1312
 8158PP      PP18262   6.585  12.844  11.851 -0.0647 -0.2013  0.1228
 8159PP      PP18263  11.983  11.478   8.461  0.0676 -0.0577 -0.1792
 8160PP      PP18264  12.973   2.390  10.977  0.0156  0.0909 -0.3947
 8161PP      PP18265  13.652   9.875  11.447  0.2335  0.1274  0.0080
 8162PP      PP18266   7.334   0.067  11.339  0.0783 -0.1206  0.1902
 8163PP      PP18267   9.462   0.336  10.055 -0.1741  0.0037  0.5178
 8164PP      PP18268   4.216  12.014   4.721 -0.3504 -0.0388 -0.2265
 8165PP      PP18269  11.481   9.834   0.836  0.0289 -0.0870 -0.0898
 8166PP      PP18270   8.490   5.587  12.206 -0.4002  0.1127 -0.1563
 8167PP      PP18271  10.748   4.119   9.946 -0.3599  0.1935  0.0311
 8168PP      PP18272  12.445   9.449  10.170  0.1244 -0.0415 -0.0258
 8169PP      PP18273   8.356   8.276   1.383  0.2626  0.0207  0.1406
 8170PP      PP18274   5.418  14.366   2.040 -0.3229 -0.0337 -0.0265
 8171PP      PP18275   4.961  14.072   0.277  0.0144  0.1145  0.0004
 8172PP      PP18276   5.815   7.668   2.202 -0.1021  0.2026  0.0790
 8173PP      PP18277   5.134   8.668   0.806 -0.0968 -0.2210 -0.1197
 8174PP      PP18278  11.001   6.551   3.098  0.0025 -0.2303 -0.2254
 8175PP      PP18279   1.462   0.945  12.543 -0.1216 -0.0823 -0.1136
 8176PP      PP18280   7.911   1.008   1.464  0.1933  0.2953 -0.0737
 8177PP      PP18281  14.930   7.029  13.260  0.3003 -0.2398  0.0811
 8178PP      PP18282  11.015  10.897  11.465 -0.1444  0.3936 -0.0329
 8179PP      PP18283  14.232  10.641   4.347  0.0226 -0.0459  0.0909
 8180PP      PP18284   9.887  14.966   2.359  0.2372 -0.0142  0.0459
 8181PP      PP18285  10.610   6.303   8.354  0.0192 -0.0503  0.0933
 8182PP      PP18286   2.183  11.357   0.912  0.0522  0.2507 -0.0075
 8183PP      PP18287   3.222   2.145   2.639  0.2232  0.2522 -0.1227
 8184PP      PP18288   5.481  13.016  11.886  0.0739  0.1694 -0.4203
 8185PP      PP18289  13.613   7.944   0.575 -0.0721 -0.3895 -0.0641
 8186PP      PP18290   7.436  12.726   8.642  0.1381  0.2061  0.2345
 8187PP      PP18291  15.627   0.942   4.324  0.3142  0.2086 -0.1474
 8188PP      PP18292   2.745   2.419   1.367 -0.4910 -0.0227  0.0161
 8189PP      PP18293   2.958   6.149   0.113  0.0901 -0.0992 -0.1019
 8190PP      PP18294  10.229  13.032   2.755 -0.2011 -0.0856 -0.0078
 8191PP      PP18295   6.361   1.240  10.152  0.1577  0.1888  0.0291
 8192PP      PP18296  10.481  13.517   0.084  0.0167 -0.0352  0.0337
 8193PP      PP18297  15.041   1.096  10.089 -0.1296  0.6049 -0.0804
 8194PP      PP18298   1.170  11.207   2.529  0.2391  0.0642 -0.0017
 8195PP      PP18299  14.797  14.141   3.880 -0.1047 -0.0018  0.0680
 8196PP      PP18300   3.782   7.325  11.458 -0.0352 -0.1177 -0.0353
 8197PP      PP18301   2.287   3.871   2.102  0.1448 -0.1092 -0.1631
 8198PP      PP18302  11.335   8.730   3.227  0.1204  0.0299 -0.2285
 8199PP      PP18303  15.791  12.484   1.292  0.0976 -0.1453  0.2094
 8200PP      PP18304   2.303  14.555  13.052  0.0215  0.1641 -0.3400
 8201PP      PP18305   9.231   1.823   8.855 -0.1519 -0.0531 -0.0667
 8202PP      PP18306  14.175  10.513   9.465 -0.3348 -0.1878  0.0733
 8203PP      PP18307   2.215   0.976   8.996  0.1808  0.1924 -0.0916
 8204PP      PP18308  11.974   8.633   1.036 -0.2105 -0.1250 -0.0510
 8205PP      PP18309  15.842   7.799   0.640  0.1696 -0.0252  0.1390
 8206PP      PP18310   7.688   7.411  13.015 -0.0192  0.1310 -0.4437
 8207PP      PP18311  13.905  10.609  12.871 -0.0076 -0.0049  0.0996
 8208PP      PP18312   0.069  12.433   1.816  0.0485 -0.0278  0.3516
 8209PP      PP18313  12.195   4.156   3.774 -0.0298 -0.2604  0.0296
 8210PP      PP18314   8.453   2.263  12.531  0.0255  0.3290  0.1219
 8211PP      PP18315  13.952   5.553   0.027 -0.0464  0.1135 -0.1409
 8212PP      PP18316   3.218   2.867   9.709 -0.2862 -0.4265  0.0361
 8213PP      PP18317   0.358   7.649   2.619 -0.1991 -0.0630  0.0843
 8214PP      PP18318  15.770   1.525   8.727  0.0624  0.1410 -0.0790
 8215PP      PP18319   9.060   4.437   0.615  0.1459 -0.0724  0.0454
 8216PP      PP18320   8.196  11.338  11.757 -0.1795  0.0782  0.0571
 8217PP      PP18321   1.544  14.818   3.674  0.0486  0.3845 -0.2220
 8218PP      PP18322   7.352   2.755  10.294 -0.0663  0.2269  0.1378
 8219PP      PP18323   9.114   9.849   2.064 -0.0303  0.0160 -0.2601
 8220PP      PP18324   9.220  12.649   2.163  0.0339  0.0206  0.1457
 8221PP      PP18325   8.661  15.677   1.582 -0.2433  0.1589 -0.0499
 8222PP      PP18326   8.226  15.670  12.500  0.3133 -0.2198 -0.0400
 8223PP      PP18327  14.451   2.678   0.362 -0.4384 -0.0621 -0.3512
 8224PP      PP18328   8.354  12.944  12.891 -0.1113 -0.0704 -0.0116
 8225PP      PP18329  15.030   3.726   8.934 -0.0393  0.2274  0.1195
 8226PP      PP18330   3.354  14.691   0.490  0.1519 -0.0525  0.1505
 8227PP      PP18331  11.692  13.258   9.470 -0.1135 -0.0973 -0.1548
 8228PP      PP18332   6.792   6.738   1.852  0.1161  0.0322  0.2145
 8229PP      PP18333  10.565   6.799   1.610  0.1490  0.1133 -0.1416
 8230PP      PP18334   1.404  10.356   3.041 -0.0856  0.2154  0.1139
 8231PP      PP18335   4.170  10.902  11.418 -0.2094 -0.0281  0.3925
 8232PP      PP18336  14.881   2.184   1.021  0.1403 -0.1671 -0.1375
 8233PP      PP18337   2.929  12.610  12.419  0.3514 -0.4654 -0.1542
 8234PP      PP18338   4.303   1.532   1.627 -0.0628 -0.2881 -0.0686
 8235PP      PP18339   6.568   8.230  12.387  0.2987  0.0510  0.1381
 8236PP      PP18340   9.266   2.449  10.096 -0.2003 -0.0402 -0.1956
 8237PP      PP18341   6.856  14.253   9.810  0.0419  0.1233  0.1642
 8238PP      PP18342   4.840   8.334  11.185 -0.2421  0.4031 -0.1157
 8239PP      PP18343   5.423   7.228   4.061  0.2145 -0.2709 -0.0548
 8240PP      PP18344   1.496   5.014  12.444 -0.3703 -0.0431 -0.2637
 8241PP      PP18345  13.098   1.731  10.218  0.1990 -0.2100  0.2405
 8242PP      PP18346   3.702   1.191  13.137 -0.2429  0.1247 -0.3094
 8243PP      PP18347   1.538   3.592   3.627 -0.0385  0.5052  0.4556
 8244PP      PP18348   6.830  11.752  11.063  0.3489  0.2201  0.0251
 8245PP      PP18349  10.569  10.768   0.121  0.0305  0.1384 -0.1365
 8246PP      PP18350  10.526   3.162   0.943 -0.0900 -0.1874 -0.0460
 8247PP      PP18351  15.841  15.083   3.620  0.1450  0.1389  0.0031
 8248PP      PP18352   2.249  12.329  10.532 -0.0713  0.1666  0.2340
 8249PP      PP18353   1.728   3.428   9.741  0.0799 -0.0355 -0.3537
 8250PP      PP18354   9.599   5.106  10.622 -0.2319  0.0754  0.1007
 8251PP      PP18355   2.476  15.145  12.528 -0.2282 -0.1862 -0.0686
 8252PP      PP18356   5.786  14.679  11.347 -0.2166  0.0201  0.4735
 8253PP      PP18357  15.589   5.275   9.000 -0.0371  0.2448  0.0607
 8254PP      PP18358   5.820  10.719   3.054 -0.1049 -0.3753  0.2187
 8255PP      PP18359  11.175   1.066  12.991  0.2163 -0.3151  0.0742
 8256PP      PP18360   4.863  14.893   4.413 -0.0988 -0.0767  0.0479
 8257PP      PP18361   2.831   6.210   4.205 -0.0598 -0.3371  0.3259
 8258PP      PP18362  14.442   7.634   0.395  0.1684 -0.1286 -0.0328
 8259PP      PP18363  11.525   9.831  10.214 -0.2730 -0.1282  0.2342
 8260PP      PP18364  11.203  10.891   2.906 -0.3384  0.0316  0.0341
 8261PP      PP18365   3.671   6.176   3.601 -0.0766  0.1533  0.2131
 8262PP      PP18366   9.611  14.772   1.849 -0.0903  0.2057  0.1025
 8263PP      PP18367   9.072  11.858   4.845 -0.0631  0.3046 -0.0937
 8264PP      PP18368  15.203   5.743   2.241 -0.3065  0.1200  0.1898
 8265PP      PP18369  10.140  14.021  10.968  0.2887  0.0322 -0.0278
 8266PP      PP18370   0.812   3.948   9.670  0.1007  0.0075  0.0190
 8267PP      PP18371   5.413   8.753   3.325 -0.2634 -0.0760 -0.2235
 8268PP      PP18372   3.115   0.457  11.488 -0.2473  0.0158  0.1242
 8269PP      PP18373  14.286   2.260   4.433 -0.2498 -0.1900 -0.2716
 8270PP      PP18374  11.969   0.031   9.466  0.0718  0.1258  0.3701
 8271PP      PP18375   9.122   8.390   2.543 -0.1086  0.2954 -0.3461
 8272PP      PP18376  14.730   1.027   0.715 -0.1008 -0.0996  0.4049
 8273PP      PP18377  15.667  13.710  11.425  0.0999  0.0764 -0.0177
 8274PP      PP18378   5.846  10.238   3.499  0.0632 -0.1748  0.5656
 8275PP      PP18379   6.905   6.631   2.315 -0.1866  0.2314  0.0744
 8276PP      PP18380  14.890  14.176  10.289  0.1261  0.2534 -0.0744
 8277PP      PP18381   4.482   9.015   2.542  0.0673  0.1376  0.0135
 8278PP      PP18382   4.686   1.534   1.206 -0.0480  0.1941  0.2779
 8279PP      PP18383   1.714  15.402   0.429  0.0566 -0.1901  0.1038
 8280PP      PP18384   3.221   1.132   2.383  0.1130  0.0380  0.4348
 8281PP      PP18385   7.053  11.760  12.786  0.3920 -0.0301  0.0843
 8282PP      PP18386  14.840   9.191   9.571  0.0568  0.1841 -0.2210
 8283PP      PP18387   1.658  15.098   1.010  0.1504 -0.2366  0.2728
 8284PP      PP18388   3.214  11.093  13.053 -0.3079 -0.3480  0.1760
 8285PP      PP18389   4.666   8.512   3.858 -0.3508  0.0750  0.1552
 8286PP      PP18390   1.558  14.318  11.565  0.1964 -0.0277  0.0063
 8287PP      PP18391   1.280   7.246  10.192 -0.1330 -0.0960  0.1108
 8288PP      PP18392   2.911   4.874   2.543 -0.0128  0.0447 -0.0854
 8289PP      PP18393   4.572   3.377  10.401  0.2183  0.0098 -0.0235
 8290PP      PP18394  14.698   8.660  11.242 -0.2728  0.0295  0.0069
 8291PP      PP18395   0.563  11.536   9.479 -0.0639  0.0527 -0.2317
 8292PP      PP18396  13.839  11.636  12.638 -0.0611 -0.0592 -0.3612
 8293PP      PP18397   7.494   2.907   9.510  0.0566  0.0547  0.2068
 8294PP      PP18398  14.259   7.259   3.210 -0.0706  0.1897  0.0037
 8295PP      PP18399  11.321  15.367   8.810 -0.1318 -0.0543 -0.2170
 8296PP      PP18400   3.890   7.181   0.741  0.0714 -0.2499  0.0105
 8297PP      PP18401   1.803   0.558  11.315  0.0294  0.2446 -0.1072
 8298PP      PP18402  13.676  13.617  11.608  0.1143  0.0242 -0.2193
 8299PP      PP18403   4.197   8.930   5.264 -0.3391 -0.1155  0.0363
 8300PP      PP18404   4.440   8.194  13.194  0.0311  0.1075 -0.2401
 8301PP      PP18405  12.777  12.900   0.423  0.1050  0.0946  0.4855
 8302PP      PP18406   0.049  11.461   9.433  0.0690  0.2387 -0.1423
 8303PP      PP18407   7.881   9.755   0.615  0.2139 -0.1857  0.0014
 8304PP      PP18408   9.487  10.233   8.874  0.0393  0.3774  0.0711
 8305PP      PP18409   0.350  12.171   2.266  0.1833 -0.0270 -0.1254
 8306PP      PP18410   7.952  13.566  11.232  0.2446 -0.2423  0.0933
 8307PP      PP18411  11.497  12.890   2.531 -0.0292  0.1198 -0.0385
 8308PP      PP18412  15.217  13.353   4.131 -0.1290  0.0918 -0.2239
 8309PP      PP18413   6.984  15.347   0.420 -0.2323 -0.1754 -0.7024
 8310PP      PP18414   4.505   9.586   2.996 -0.0811 -0.1349  0.3398
 8311PP      PP18415  12.166  12.762  11.881  0.0054  0.0100 -0.0851
 8312PP      PP18416  12.177   1.931  12.954 -0.2925 -0.0544  0.4634
 8313PP      PP18417   9.004   4.967  12.698  0.2452  0.1067 -0.0670
 8314PP      PP18418  13.527   1.695   9.323 -0.0841 -0.0712 -0.0704
 8315PP      PP18419   6.039   5.754  10.409  0.3329 -0.1143 -0.0305
 8316PP      PP18420  10.926   8.351  10.209 -0.3266  0.0775  0.2201
 8317PP      PP18421   0.324  11.238   1.719  0.0955 -0.3078  0.1283
 8318PP      PP18422  15.737  12.249  13.194  0.0356 -0.1222  0.0603
 8319PP      PP18423   7.231   5.052   3.443 -0.1352  0.4364 -0.0786
 8320PP      PP18424   7.088   3.372   9.602  0.0990 -0.1493 -0.0604
 8321PP      PP18425   0.595   7.165   1.105  0.1747 -0.0696 -0.2406
 8322PP      PP18426   3.815   2.876  11.117  0.2245 -0.0062  0.1992
 8323PP      PP18427   3.436   2.207  12.131  0.1729  0.0779  0.3046
 8324PP      PP18428   1.979   2.717  12.746 -0.0546  0.1877 -0.2016
 8325PP      PP18429   7.566   4.648   2.160  0.1058 -0.0466  0.2563
 8326PP      PP18430  13.166   4.744  13.061  0.1773  0.3163  0.0767
 8327PP      PP18431  12.877   8.594  12.766 -0.2757  0.1628 -0.1985
 8328PP      PP18432  13.144   6.416   4.001  0.0869 -0.0457  0.1773
 8329PP      PP18433   9.404   4.622   4.051  0.0294  0.2447  0.1147
 8330PP      PP18434  13.500   2.505  11.180 -0.1529  0.0186  0.0279
 8331PP      PP18435  14.881  12.021   1.734  0.1716  0.1676 -0.1508
 8332PP      PP18436   8.073   3.867   3.105 -0.0320  0.1581  0.1945
 8333PP      PP18437   7.066   2.794   3.113  0.0087 -0.0237 -0.0001
 8334PP      PP18438   5.820   9.762  12.955 -0.1583 -0.3000 -0.1996
 8335PP      PP18439   7.025  12.295   1.431  0.1934 -0.0920  0.1809
 8336PP      PP18440   5.334   2.049   0.647  0.0252  0.0908 -0.1027
 8337PP      PP18441   5.794   3.518  13.100  0.1651  0.2672 -0.0370
 8338PP      PP18442   8.368   8.486   1.865 -0.0024  0.0174  0.2530
 8339PP      PP18443   0.457   9.314  10.485 -0.2420 -0.1751 -0.0536
 8340PP      PP18444  11.995   4.356  13.120  0.1815 -0.1541  0.1852
 8341PP      PP18445  11.431  11.688   2.595 -0.0520 -0.0200 -0.1408
 8342PP      PP18446   9.406   5.303   9.496  0.2702 -0.0927  0.1556
 8343PP      PP18447  11.961  12.465   1.909 -0.1075 -0.3253  0.3622
 8344PP      PP18448   5.112  14.453  12.580  0.0780  0.2832  0.0133
 8345PP      PP18449   3.005   7.762  11.085  0.2442 -0.3618  0.1837
 8346PP      PP18450   1.204  10.636   9.259 -0.3421  0.3434  0.0196
 8347PP      PP18451   3.321   6.883   5.286  0.0920  0.0919  0.1432
 8348PP      PP18452   0.982   5.409   4.948  0.0991  0.0049  0.0611
 8349PP      PP18453   1.714   1.327   2.799  0.2033 -0.0364  0.1272
 8350PP      PP18454  11.349   0.098   0.677 -0.0471 -0.0545 -0.0932
 8351PP      PP18455  10.938  14.308   3.881  0.0447  0.1807  0.0696
 8352PP      PP18456   8.452   1.313  12.809  0.2287  0.3846  0.2081
 8353PP      PP18457   3.140   6.978   2.852  0.1088  0.0374  0.0827
 8354PP      PP18458  14.625  14.116  10.813  0.2786 -0.1334 -0.1214
 8355PP      PP18459   1.166   2.966  13.123 -0.2600 -0.0431 -0.0297
 8356PP      PP18460  11.040   2.247  11.728  0.0160  0.0453  0.0910
 8357PP      PP18461   3.226   3.518   3.251  0.2940 -0.0005  0.1305
 8358PP      PP18462   6.559  14.817  13.223 -0.2694 -0.2362  0.3365
 8359PP      PP18463  10.433   5.998   3.861  0.6427  0.2783 -0.1298
 8360PP      PP18464   3.112   0.218   1.160 -0.0626 -0.0024  0.2431
 8361PP      PP18465   4.970   4.756   9.035  0.2357  0.0062 -0.1268
 8362PP      PP18466   5.802  15.270  10.112  0.1069  0.2170  0.0893
 8363PP      PP18467   6.600   6.484   9.091 -0.0981 -0.3346 -0.1176
 8364PP      PP18468   1.307  11.434   0.246 -0.0709  0.1956  0.0948
 8365PP      PP18469   5.251   1.790   0.104 -0.0759  0.0703  0.0146
 8366PP      PP18470  14.657   1.643   3.516  0.1160  0.0059 -0.0834
 8367PP      PP18471  14.435  12.351  10.567  0.2424 -0.1729 -0.2549
 8368PP      PP18472  14.418  15.219   2.319  0.1760  0.0600 -0.1427
 8369PP      PP18473  14.747   4.344  13.033  0.0464 -0.0373 -0.1805
 8370PP      PP18474   8.640  13.859   2.821 -0.1770  0.1258 -0.2587
 8371PP      PP18475  15.720   9.222   9.509  0.3147  0.1353  0.2202
 8372PP      PP18476  12.435   7.997  11.026 -0.1943  0.2959 -0.1563
 8373PP      PP18477  13.818   1.224  11.701 -0.1076  0.5259  0.1779
 8374PP      PP18478  13.008   6.034  12.841 -0.2161 -0.0942  0.3176
 8375PP      PP18479  15.757  11.114  11.351 -0.0268 -0.1890 -0.3070
 8376PP      PP18480   2.341   6.234   1.927  0.0671  0.2206 -0.5734
 8377PP      PP18481  15.662   0.451  11.956 -0.2987  0.0287 -0.1730
 8378PP      PP18482  10.572   0.387  10.615  0.0001 -0.3040  0.0147
 8379PP      PP18483   7.607   8.444   9.876  0.3816  0.0720  0.0998
 8380PP      PP18484   7.568   8.213   4.690  0.2235 -0.1965  0.2876
 8381PP      PP18485  10.111  14.096  12.326  0.0396  0.0619  0.1499
 8382PP      PP18486   4.282   8.403   2.857  0.3080 -0.3631  0.2315
 8383PP      PP18487   7.994   0.932  12.709  0.1959  0.0410 -0.1391
 8384PP      PP18488  15.411   1.549   3.039  0.1952  0.0576 -0.3408
 8385PP      PP18489   1.612   0.072  11.324  0.3744  0.3553  0.0082
 8386PP      PP18490  14.370   4.840   4.361  0.0840 -0.1467 -0.3347
 8387PP      PP18491   9.121  10.305   3.598 -0.0025 -0.0205  0.0844
 8388PP      PP18492  14.423   9.458  11.873 -0.0728 -0.1932  0.0071
 8389PP      PP18493   1.252  11.310   4.156 -0.0441  0.1021 -0.2714
 8390PP      PP18494   2.529   0.491   2.999 -0.0895 -0.2560 -0.3202
 8391PP      PP18495   6.833   2.274  13.106 -0.0344  0.1912 -0.1217
 8392PP      PP18496   3.400  14.372   4.184  0.0976 -0.0760 -0.3035
 8393PP      PP18497  12.820  11.871  12.071  0.0721  0.0537 -0.1463
 8394PP      PP18498   5.782   7.594   3.844 -0.0980  0.1318  0.0386
 8395PP      PP18499   0.118   4.192   2.323 -0.2612 -0.2003 -0.0982
 8396PP      PP18500  11.638   6.255  13.362 -0.0325  0.3948  0.1065
 8397PP      PP18501  14.208  15.346  10.760  0.1876 -0.0665  0.1830
 8398PP      PP18502   8.513   9.490   4.710  0.2223 -0.2071  0.0257
 8399PP      PP18503  15.628   8.783  11.521  0.1396 -0.5132 -0.0266
 8400PP      PP18504   6.258  13.470   1.379 -0.1228  0.0761  0.1813
 8401PP      PP18505  12.853   7.279  12.467  0.0836  0.1423  0.0615
 8402PP      PP18506  12.738   1.283  11.541 -0.2693 -0.0599 -0.0347
 8403PP      PP18507   2.893  10.467  10.462  0.0565 -0.0330 -0.2182
 8404PP      PP18508  13.882  11.670  10.907 -0.2263  0.1048 -0.2561
 8405PP      PP18509   1.526   1.306   9.721  0.1034 -0.1076  0.0086
 8406PP      PP18510   9.145   8.418   9.549  0.1817 -0.0602  0.0927
 8407PP      PP18511   8.228   7.075  13.264  0.1728 -0.1031 -0.1146
 8408PP      PP18512   5.891   4.921   3.194  0.0684 -0.0675  0.0456
 8409PP      PP18513   8.155  15.449   0.955  0.1378  0.3568  0.0519
 8410PP      PP18514   8.788   8.424   3.912 -0.0812 -0.4407  0.0362
 8411PP      PP18515   4.321   8.226   2.414 -0.1926 -0.0678 -0.0824
 8412PP      PP18516   4.373  14.195   3.894  0.1160  0.0570  0.3405
 8413PP      PP18517  13.146   2.060   4.520 -0.0264  0.0132 -0.2236
 8414PP      PP18518  14.662   9.879  10.615  0.0247 -0.0773 -0.1552
 8415PP      PP18519   1.466  12.781   3.986 -0.0566 -0.0051 -0.0778
 8416PP      PP18520  14.333   3.084  13.303  0.1339 -0.3601 -0.1566
 8417PP      PP18521  14.326   7.305   2.728  0.0950  0.1292 -0.2084
 8418PP      PP18522   7.427   0.090   0.496 -0.1244 -0.3028 -0.2144
 8419PP      PP18523  14.469   1.991   9.631 -0.0040  0.2831  0.0590
 8420PP      PP18524  14.582   1.518   4.070  0.1628  0.2096  0.0595
 8421PP      PP18525   4.902   8.988  10.959  0.0381  0.0939 -0.0900
 8422PP      PP18526  10.770   2.346   9.540  0.1746 -0.2400 -0.1211
 8423PP      PP18527   4.914   6.404  13.147 -0.1272 -0.0659 -0.1173
 8424PP      PP18528   4.785   2.401   4.493 -0.2829  0.2919  0.0284
 8425PP      PP18529  10.296  10.400   1.530  0.3266 -0.0366 -0.3175
 8426PP      PP18530   1.149  14.937  10.353  0.1582 -0.3695  0.3616
 8427PP      PP18531   0.579  15.475  13.435 -0.1018  0.0279 -0.1230
 8428PP      PP18532   2.352   4.474  12.180  0.1348 -0.0239  0.1030
 8429PP      PP18533   5.436  13.533  11.916  0.0143  0.1617  0.1376
 8430PP      PP18534   0.626   9.266  12.556  0.4940 -0.4081 -0.2343
 8431PP      PP18535   1.264   4.313  12.771  0.1567  0.1840 -0.2158
 8432PP      PP18536   7.874   1.149   9.221  0.1862  0.0064  0.4101
 8433PP      PP18537  14.807  10.726  13.078 -0.1607 -0.4758 -0.1082
 8434PP      PP18538   8.070   3.492  13.339  0.3010 -0.0913 -0.0341
 8435PP      PP18539  10.533  12.180   3.507 -0.1846  0.0796 -0.0246
 8436PP      PP18540   6.502  13.908   1.238 -0.2266 -0.0190 -0.0822
 8437PP      PP18541   5.258   1.520  13.172  0.0488 -0.2474  0.2875
 8438PP      PP18542   4.750  11.995   3.268  0.0992 -0.1946  0.2111
 8439PP      PP18543   0.843  15.894   9.098 -0.0988  0.3161 -0.3291
 8440PP      PP18544   9.592   6.286   1.405 -0.2342 -0.0579 -0.3762
 8441PP      PP18545  15.300  12.931  12.300 -0.4633  0.0826 -0.3224
 8442PP      PP18546  13.307   8.250  10.967  0.0453 -0.1521  0.2990
 8443PP      PP18547  11.963   9.338   3.924  0.1057  0.1156 -0.1100
 8444PP      PP18548   6.683   9.444  12.685  0.1296  0.1827  0.0970
 8445PP      PP18549   2.315   0.173   1.503 -0.0996  0.1223 -0.1859
 8446PP      PP18550   3.419   6.480  11.137  0.1114  0.4903 -0.1864
 8447PP      PP18551  12.215   9.689  11.017 -0.0517 -0.3491  0.2347
 8448PP      PP18552   8.176  14.220  12.476  0.3418 -0.0062  0.1510
 8449PP      PP18553   1.631  15.451   9.629 -0.0207 -0.1981 -0.0344
 8450PP      PP18554   0.059  13.769   3.659  0.1739  0.2443 -0.0307
 8451PP      PP18555   6.428   0.870   0.988  0.1570  0.1821  0.2086
 8452PP      PP18556   5.265   6.431   2.935  0.2253 -0.2254 -0.0036
 8453PP      PP18557  12.707   7.943   4.126  0.3138 -0.4180  0.4363
 8454PP      PP18558  13.956  15.101  13.436  0.0006 -0.1708  0.0543
 8455PP      PP18559  12.392   1.901   1.038  0.0842  0.2183  0.0931
 8456PP      PP18560   9.046   8.218   0.731 -0.1322 -0.1754 -0.2020
 8457PP      PP18561   8.513   7.451  10.081  0.3286 -0.1439 -0.0890
 8458PP      PP18562  14.787   1.996  10.922 -0.0120 -0.3217 -0.1405
 8459PP      PP18563   4.746   4.105   3.364  0.0842 -0.1203 -0.2526
 8460PP      PP18564   4.457  14.472   0.185 -0.3750  0.1040  0.3485
 8461PP      PP18565   0.967  14.375  12.251  0.0966 -0.1336  0.2187
 8462PP      PP18566   2.918   3.526   1.552 -0.1434  0.3389 -0.1992
 8463PP      PP18567   4.658   6.980   1.643 -0.1468 -0.0737  0.4075
 8464PP      PP18568  12.330   1.532   2.322  0.0852 -0.1085  0.0517
 8465PP      PP18569   2.272   1.623   3.447  0.1285  0.1543 -0.0065
 8466PP      PP18570   1.307   9.670   3.512 -0.0784 -0.0381  0.3232
 8467PP      PP18571  13.008  14.353  11.184 -0.0357 -0.0889  0.2050
 8468PP      PP18572   3.170  13.221   0.598 -0.1524  0.1911  0.1578
 8469PP      PP18573  14.990   6.813   2.831 -0.0451  0.0245  0.2008
 8470PP      PP18574  14.425   8.148   0.723 -0.4583  0.1462 -0.0870
 8471PP      PP18575  11.565  14.184   8.242 -0.1135  0.3870 -0.2456
 8472PP      PP18576  11.347   3.671  13.042  0.0908  0.2229  0.2045
 8473PP      PP18577   1.761  12.476   4.529 -0.3472 -0.1539  0.1424
 8474PP      PP18578   4.116  12.936  12.302  0.2528 -0.3129  0.0231
 8475PP      PP18579   6.327   6.408   1.873 -0.0025 -0.1632 -0.0901
 8476PP      PP18580  11.270  12.803  11.435 -0.2825 -0.1316 -0.4322
 8477PP      PP18581   1.311   6.955   9.582 -0.1573 -0.1829 -0.0292
 8478PP      PP18582  11.272   4.136  11.369  0.2562  0.2332  0.0648
 8479PP      PP18583   3.788   7.358   2.516  0.0574  0.1795  0.2065
 8480PP      PP18584   2.979   4.421   0.440 -0.1092  0.1955  0.1491
 8481PP      PP18585  13.459   3.811  10.104 -0.0723  0.2460  0.1217
 8482PP      PP18586   8.063   1.572   0.938 -0.1451 -0.1419 -0.0168
 8483PP      PP18587   9.505   2.284   3.918  0.2959 -0.1870 -0.0464
 8484PP      PP18588   7.916   3.324   2.284 -0.1075  0.0484  0.1342
 8485PP      PP18589  12.015   5.792   8.663 -0.0169  0.5100  0.0901
 8486PP      PP18590   2.950  10.653   4.253 -0.1682 -0.1497  0.1340
 8487PP      PP18591   8.586   0.158   2.061  0.1899  0.1725 -0.0721
 8488PP      PP18592  12.823   1.467   0.416 -0.6869 -0.0438  0.2362
 8489PP      PP18593  12.451   3.909   4.126 -0.1833  0.1479 -0.1602
 8490PP      PP18594  15.420   2.164  11.848 -0.2899  0.2088 -0.0505
 8491PP      PP18595   8.691   3.303   1.129 -0.0792  0.1169  0.1971
 8492PP      PP18596   0.826  12.354   8.401 -0.2188  0.1756  0.1834
 8493PP      PP18597   6.605   0.219  10.620  0.0473 -0.2267 -0.0686
 8494PP      PP18598   1.259   0.503  12.418  0.1645 -0.0919  0.0964
 8495PP      PP18599   1.970  10.361   2.806  0.0601 -0.0648 -0.0486
 8496PP      PP18600   3.324   4.011   3.386  0.1206 -0.0203  0.1265
 8497PP      PP18601   8.700  11.205   8.443 -0.0458  0.0441  0.3508
 8498PP      PP18602  14.908  14.873   1.494 -0.1449 -0.1272  0.1717
 8499PP      PP18603   4.265   0.884   0.679  0.1199 -0.2433 -0.2381
 8500PP      PP18604   3.729   4.915   3.519 -0.2120  0.1097 -0.1061
 8501PP      PP18605  13.195  13.382  12.909  0.0579  0.0719  0.1237
 8502PP      PP18606   5.196   9.897   9.804  0.0770  0.0741  0.1285
 8503PP      PP18607  12.322   5.156   1.532  0.0084  0.1015 -0.2435
 8504PP      PP18608   1.975   7.184  10.032 -0.2971  0.2077  0.1147
 8505PP      PP18609   3.106   2.392   9.527 -0.0718 -0.1364 -0.3169
 8506PP      PP18610  15.350  12.085  11.761 -0.0919  0.1405 -0.0133
 8507PP      PP18611   1.671  10.385   9.230 -0.0103  0.1410 -0.0223
 8508PP      PP18612   7.119   3.979   8.767 -0.2090 -0.0191 -0.1620
 8509PP      PP18613  15.852  10.650   0.800 -0.1550 -0.2839 -0.0807
 8510PP      PP18614   4.270   9.067   1.439 -0.0024  0.1727  0.1139
 8511PP      PP18615  15.720  15.460   0.829  0.1795 -0.0172 -0.3562
 8512PP      PP18616   0.823   2.969   1.231 -0.0278 -0.1382  0.1027
 8513PP      PP18617   9.703   1.126  12.803  0.0437 -0.0100  0.1684
 8514PP      PP18618  10.464   5.963   3.373  0.2025  0.0078  0.0175
 8515PP      PP18619   3.868   6.654  12.393  0.2755  0.0111 -0.3959
 8516PP      PP18620   3.391  12.211   1.747  0.0478 -0.0063  0.1682
 8517PP      PP18621   6.340   9.717   4.183  0.1443  0.0856  0.0474
 8518PP      PP18622   3.811   3.938   3.340  0.0627 -0.1689  0.0285
 8519PP      PP18623   6.500  14.592  12.290 -0.0274 -0.4731  0.2547
 8520PP      PP18624   6.675   2.924   2.270  0.2844 -0.2169 -0.1355
 8521PP      PP18625  10.322   9.370   1.619  0.3352 -0.0826 -0.1599
 8522PP      PP18626   2.064  11.873  11.951  0.2174 -0.1832  0.3259
 8523PP      PP18627   3.652   7.094   4.013  0.3806  0.0052 -0.1685
 8524PP      PP18628   3.956  13.904   1.930  0.0592  0.0831 -0.2131
 8525PP      PP18629   6.497   5.350  11.576  0.1814  0.0468  0.0822
 8526PP      PP18630  14.228   5.308   3.693 -0.0458  0.2779 -0.1801
 8527PP      PP18631   2.828   6.349   9.802 -0.0306 -0.2018 -0.3096
 8528PP      PP18632   4.928  15.794   4.045  0.0868  0.1400 -0.0976
 8529PP      PP18633  11.823   7.234   9.176 -0.0719  0.0387 -0.0375
 8530PP      PP18634   7.781   8.910   0.986  0.1803  0.2472  0.2284
 8531PP      PP18635   4.769   3.276   3.951  0.0266  0.1879  0.1286
 8532PP      PP18636  12.689   4.286   9.237 -0.2649  0.0221 -0.1690
 8533PP      PP18637   2.058  11.482   4.608 -0.0956  0.0149  0.3580
 8534PP      PP18638   3.317   3.318  11.596  0.2231  0.1018 -0.0207
 8535PP      PP18639   1.439   2.408   0.056 -0.0797  0.1311 -0.2564
 8536PP      PP18640  12.565   9.964  12.913 -0.1531 -0.0094 -0.1336
 8537PP      PP18641  15.747  11.611   2.257 -0.2602  0.0829  0.0376
 8538PP      PP18642   9.629   7.123  10.005 -0.4093 -0.1239  0.0311
 8539PP      PP18643  10.259   3.256   9.535 -0.0885 -0.2502  0.2515
 8540PP      PP18644  11.491  13.097  10.404  0.2609 -0.0765 -0.1258
 8541PP      PP18645   7.366   8.643   1.531 -0.0903 -0.0534  0.4372
 8542PP      PP18646  10.886  10.132  13.017 -0.2642  0.1364 -0.1669
 8543PP      PP18647  11.839   5.052   1.281  0.2229 -0.2386 -0.0633
 8544PP      PP18648   7.921  12.768  13.084 -0.2472 -0.1508  0.0255
 8545PP      PP18649   9.736  15.791  11.113 -0.1420  0.6073 -0.0769
 8546PP      PP18650  10.967  15.121  11.609  0.2124 -0.1315  0.0446
 8547PP      PP18651   7.585  14.317  10.498 -0.0326  0.0792 -0.1214
 8548PP      PP18652   6.970   7.226   0.505  0.1452 -0.1243 -0.2444
 8549PP      PP18653   1.800  13.993   8.882  0.1802  0.1140  0.0222
 8550PP      PP18654  11.037   1.757   1.540 -0.0578  0.2218  0.0540
 8551PP      PP18655   5.878  12.915   2.890 -0.1462 -0.3713  0.2467
 8552PP      PP18656   6.739   2.369   9.648 -0.0958  0.0191 -0.0189
 8553PP      PP18657   0.427  10.537   0.644  0.2270  0.2814 -0.3110
 8554PP      PP18658   3.264   1.927   9.091  0.1485  0.0433 -0.3737
 8555PP      PP18659   1.404  11.249   1.184 -0.2520 -0.2103 -0.4892
 8556PP      PP18660  12.314   0.371   4.030 -0.1139  0.2141  0.0375
 8557PP      PP18661   4.929   4.712  11.326  0.1113  0.4807  0.0821
 8558PP      PP18662  14.775  11.263  12.316 -0.0640 -0.1603 -0.1274
 8559PP      PP18663   5.744  15.563  11.987  0.1784 -0.2184 -0.1600
 8560PP      PP18664   9.507   3.685   0.494  0.0520  0.0469 -0.1701
 8561PP      PP18665   4.527  15.576  12.106  0.1499  0.0720  0.1878
 8562PP      PP18666  13.268  10.694   8.948 -0.0157 -0.2144 -0.0118
 8563PP      PP18667   7.188  13.573   9.434 -0.3349 -0.0261 -0.1827
 8564PP      PP18668  11.219   8.682   2.321 -0.0561  0.2699  0.0468
 8565PP      PP18669   8.700   4.675   2.449 -0.1517  0.0476 -0.1117
 8566PP      PP18670  14.305   0.536   0.676 -0.3116 -0.1011 -0.0905
 8567PP      PP18671   8.390  11.199   0.380  0.0730 -0.0801 -0.0906
 8568PP      PP18672   7.831   5.970   0.590  0.2046 -0.0033 -0.0908
 8569PP      PP18673   7.417   6.334   4.389 -0.1280 -0.2654 -0.1574
 8570PP      PP18674   8.068  11.472   3.314  0.4049 -0.1749 -0.1188
 8571PP      PP18675   1.738   1.097   0.761 -0.0561 -0.2367  0.0015
 8572PP      PP18676  10.776  14.039  13.338 -0.0578  0.0115  0.1168
 8573PP      PP18677   1.124   5.385  10.993 -0.1603  0.3013 -0.0388
 8574PP      PP18678  12.021   6.068  11.579  0.0775 -0.0190  0.1268
 8575PP      PP18679   8.527   8.947   2.246 -0.0286  0.1624  0.0066
 8576PP      PP18680   7.294   5.032   3.962  0.0047 -0.3131 -0.4613
 8577PP      PP18681   6.681   5.162  10.120 -0.1134 -0.1786  0.0990
 8578PP      PP18682  12.068  12.233  11.103 -0.1240  0.1225 -0.2634
 8579PP      PP18683   0.253   3.554  10.920 -0.3001  0.1566 -0.0522
 8580PP      PP18684   0.516  10.603   1.634  0.1309 -0.1065  0.0325
 8581PP      PP18685  11.797   8.642  11.807 -0.0668 -0.4057 -0.0640
 8582PP      PP18686  15.615   7.795  12.452  0.0367  0.2482 -0.0991
 8583PP      PP18687   9.776   5.640   0.259  0.0270 -0.0343  0.2672
 8584PP      PP18688  13.962  10.463  13.392 -0.1165 -0.1037 -0.2085
 8585PP      PP18689   1.060  15.238   1.313  0.0445  0.2944 -0.0320
 8586PP      PP18690  14.830   5.240  10.981 -0.2068 -0.1007 -0.0664
 8587PP      PP18691   2.284   0.142   3.285 -0.1187  0.5666  0.1231
 8588PP      PP18692   8.335   7.607   0.667 -0.0793 -0.2647  0.2199
 8589PP      PP18693  12.849  13.978   2.821  0.3750  0.1401  0.0314
 8590PP      PP18694   1.683   1.677   2.444  0.0943 -0.0155 -0.0588
 8591PP      PP18695  15.790   5.642  13.054 -0.0636  0.0089 -0.0430
 8592PP      PP18696   3.628  13.288   0.804  0.0683  0.1786  0.2274
 8593PP      PP18697   5.956  13.355  12.268 -0.0817  0.3472  0.0727
 8594PP      PP18698   7.012   3.531  10.058 -0.0358 -0.2044 -0.0298
 8595PP      PP18699   3.204  12.695   1.936 -0.1330 -0.5283  0.1167
 8596PP      PP18700   4.194  10.294   0.024 -0.2115  0.2294 -0.0512
 8597PP      PP18701  12.092   8.184   5.089  0.1066  0.0291  0.0539
 8598PP      PP18702   6.547   8.333   9.951  0.0070  0.2367  0.2285
 8599PP      PP18703  12.932   2.285   9.690  0.0952  0.0004  0.1152
 8600PP      PP18704  11.338  12.066  10.680  0.0653 -0.3420 -0.0944
 8601PP      PP18705   6.106  15.834   3.518  0.2827 -0.0812 -0.1765
 8602PP      PP18706   8.404  11.782  10.024  0.2155 -0.1567 -0.1989
 8603PP      PP18707   9.876  10.008   2.680  0.1280 -0.0009  0.3897
 8604PP      PP18708   5.133  15.230   3.444  0.3007  0.0025  0.1298
 8605PP      PP18709  12.401   9.189   8.989 -0.0810 -0.0087 -0.0012
 8606PP      PP18710   0.577  11.814   9.994  0.2728  0.1431 -0.0865
 8607PP      PP18711   9.947   5.244   1.013 -0.2220  0.1291  0.0653
 8608PP      PP18712  13.789   1.343  10.563 -0.1042 -0.2076  0.0354
 8609PP      PP18713   9.942   2.205  11.887  0.0209  0.0418  0.2792
 8610PP      PP18714   5.799   8.827  13.218 -0.0306 -0.1487 -0.0551
 8611PP      PP18715  12.243   2.729   1.369  0.1013 -0.1419 -0.1028
 8612PP      PP18716  14.840   2.686   4.653  0.0923 -0.0823  0.0696
 8613PP      PP18717   8.228  13.677  11.742 -0.2332 -0.0302  0.1074
 8614PP      PP18718   5.906   2.174  11.483  0.0005 -0.1274 -0.3760
 8615PP      PP18719   0.616   0.193   4.319  0.0650 -0.1443 -0.1885
 8616PP      PP18720  14.385   6.344  11.148  0.1005  0.3395  0.1223
 8617PP      PP18721   3.433  10.324  11.926  0.0322  0.0654  0.2060
 8618PP      PP18722  12.915   6.216   2.792  0.1216 -0.1264 -0.0748
 8619PP      PP18723   4.551   1.358  11.315  0.1743  0.3640  0.3494
 8620PP      PP18724   7.574   7.216   0.211 -0.1805  0.0775 -0.1417
 8621PP      PP18725   0.966   1.482  11.219 -0.0642  0.0700  0.1724
 8622PP      PP18726   7.438   4.457   2.714 -0.1284  0.0740  0.0089
 8623PP      PP18727   0.093  14.706  11.031 -0.0116  0.0278  0.0329
 8624PP      PP18728   0.637  14.015  12.256  0.1880 -0.0188 -0.1198
 8625PP      PP18729   5.965   2.557   8.640 -0.2809  0.1010 -0.1487
 8626PP      PP18730   9.817  12.870   1.334 -0.1427 -0.3612  0.0763
 8627PP      PP18731   7.575   3.397   9.638 -0.2202 -0.1298  0.1444
 8628PP      PP18732  12.721   4.871   4.027  0.0381 -0.0525  0.0026
 8629PP      PP18733  15.176  14.696   0.331 -0.0756  0.0340  0.2210
 8630PP      PP18734   3.056   6.349   3.639 -0.0451  0.0572 -0.4514
 8631PP      PP18735   9.709   4.144   9.462  0.0538 -0.1811  0.0278
 8632PP      PP18736   7.805   4.026  13.173 -0.1086  0.1607 -0.1159
 8633PP      PP18737  14.488   7.293   1.587  0.2865 -0.0262 -0.0728
 8634PP      PP18738  14.135   8.666  11.973  0.0864  0.1277 -0.1757
 8635PP      PP18739  14.239   2.321   2.285  0.3041 -0.2472  0.0037
 8636PP      PP18740   3.258   5.426   1.872  0.0505 -0.0972 -0.1812
 8637PP      PP18741   4.539  11.482  10.492 -0.3205  0.1861  0.2471
 8638PP      PP18742   2.211  12.530   4.269  0.2781  0.2030 -0.0627
 8639PP      PP18743  12.006   4.002  10.557 -0.3781  0.2478  0.0640
 8640PP      PP18744   0.685   3.772   0.986 -0.1346 -0.0050  0.2049
 8641PP      PP18745  13.671  15.415   1.461  0.1317 -0.1331 -0.3071
 8642PP      PP18746   1.088   8.771   4.802  0.2888 -0.0110 -0.0292
 8643PP      PP18747  14.965   9.776   3.918  0.1063  0.0386  0.0801
 8644PP      PP18748   7.829  13.827  12.515 -0.2056  0.0080  0.0668
 8645PP      PP18749  14.221   2.148  11.687  0.2399  0.2348 -0.0564
 8646PP      PP18750   8.594  10.027   2.295 -0.0427  0.0507 -0.1866
 8647PP      PP18751   2.441  11.445  10.606  0.0380  0.0358  0.2998
 8648PP      PP18752   2.626   0.556   3.577  0.1507 -0.0243  0.1290
 8649PP      PP18753   0.561  14.014  13.174 -0.0637 -0.0867  0.0490
 8650PP      PP18754   6.631   5.128   9.294  0.0109  0.1107 -0.0274
 8651PP      PP18755   7.643   1.837   0.838  0.0707  0.0145 -0.0234
 8652PP      PP18756  10.849  13.657   2.887 -0.0157 -0.0148  0.0103
 8653PP      PP18757   5.971   1.691   1.228 -0.2564 -0.0343  0.0071
 8654PP      PP18758   5.928   3.371   4.286 -0.0158 -0.0463  0.0229
 8655PP      PP18759   3.986  14.858   2.250 -0.0578 -0.1794  0.1276
 8656PP      PP18760   7.077  11.111   9.639  0.1127 -0.0859 -0.0161
 8657PP      PP18761   7.573   3.679   9.205 -0.1346 -0.0879 -0.0001
 8658PP      PP18762   4.217   9.974   0.478  0.0127  0.0444 -0.0941
 8659PP      PP18763   0.090   2.343  10.071  0.2058 -0.0592 -0.1947
 8660PP      PP18764   6.074   9.353   1.632  0.0451 -0.2788 -0.0678
 8661PP      PP18765   4.725   2.442   2.179  0.0589 -0.1391  0.3279
 8662PP      PP18766  11.277  12.594  13.320 -0.1156  0.3785  0.2446
 8663PP      PP18767  14.875   5.468   9.675 -0.2741 -0.3449 -0.2589
 8664PP      PP18768   3.659   6.650   0.605  0.0166  0.1764  0.1734
 8665PP      PP18769  13.355   8.061  13.167  0.3327  0.1134 -0.0580
 8666PP      PP18770  13.079  11.111  10.455  0.2155 -0.0104  0.2776
 8667PP      PP18771  13.132  14.683   1.846 -0.0479  0.0508  0.1109
 8668PP      PP18772   9.032   6.885   3.941  0.0426  0.3507 -0.2255
 8669PP      PP18773  13.796   3.374   2.334  0.0226  0.1361 -0.0381
 8670PP      PP18774   5.380  14.358  12.088  0.0486  0.0200 -0.1459
 8671PP      PP18775  13.878   0.331   0.924 -0.1999  0.1586  0.2935
 8672PP      PP18776   6.811   5.063  11.234 -0.1877 -0.1327 -0.0786
 8673PP      PP18777   2.239   8.251  10.683 -0.0920 -0.2625 -0.3520
 8674PP      PP18778   0.146   0.171   9.526  0.2411  0.1202 -0.0752
 8675PP      PP18779   0.346   3.493   0.668  0.1941 -0.0115 -0.2382
 8676PP      PP18780   7.356  13.461   1.851  0.0576  0.1298 -0.0455
 8677PP      PP18781   7.587   8.311   3.112 -0.4891 -0.1527  0.0165
 8678PP      PP18782  15.716  15.567   9.027  0.1144 -0.0877 -0.0803
 8679PP      PP18783   0.098  15.215   1.607 -0.2374 -0.2523  0.0608
 8680PP      PP18784   8.493   8.005   3.683  0.6052 -0.3038 -0.2301
 8681PP      PP18785   0.603  15.231   1.513  0.2049  0.0322 -0.2531
 8682PP      PP18786  10.398   8.982   9.894  0.0120 -0.1203 -0.0892
 8683PP      PP18787  14.415  10.597   3.181  0.0031 -0.1345  0.3821
 8684PP      PP18788   1.926  15.536   1.909 -0.0050 -0.1626  0.0195
 8685PP      PP18789   5.784   8.445   2.493 -0.2237  0.0771  0.0940
 8686PP      PP18790   0.107   8.698   3.573  0.1692  0.1396 -0.0967
 8687PP      PP18791   0.299   0.603   2.040 -0.2441 -0.0807  0.2088
 8688PP      PP18792  11.500  10.847  12.567  0.0965  0.1198  0.1908
 8689PP      PP18793  10.851  11.404  10.710  0.2040 -0.3354  0.2704
 8690PP      PP18794   2.948   8.885   5.458 -0.4416  0.0364  0.1506
 8691PP      PP18795   4.001   8.105   4.204 -0.0291 -0.1916  0.0404
 8692PP      PP18796   5.638   0.731  11.221 -0.1946 -0.0274 -0.0634
 8693PP      PP18797   1.608   1.850   1.439 -0.1832 -0.0986 -0.0397
 8694PP      PP18798  13.699  11.508   3.874  0.1760 -0.1216  0.0426
 8695PP      PP18799   0.192  11.609  12.705  0.1211 -0.2548 -0.1563
 8696PP      PP18800  11.568   1.226   0.512  0.0106  0.1670 -0.3340
 8697PP      PP18801  11.105  14.975   2.039  0.2178  0.0008 -0.0579
 8698PP      PP18802   7.969   8.863   2.077 -0.0251  0.0965  0.0119
 8699PP      PP18803   2.426   0.706  12.030 -0.1603  0.0079 -0.0346
 8700PP      PP18804   4.283   3.310   4.355 -0.0434 -0.1916 -0.0777
 8701PP      PP18805   5.844   7.825  10.514  0.1218 -0.0506 -0.2276
 8702PP      PP18806  13.176  10.660   1.699 -0.1825  0.1002  0.0352
 8703PP      PP18807   1.116  12.077  10.761 -0.1673 -0.1161  0.2204
 8704PP      PP18808   1.632  11.906  10.832  0.2139  0.1315 -0.1236
 8705PP      PP18809   6.686   6.421  13.440 -0.2067 -0.2581  0.0354
 8706PP      PP18810   6.620   0.841  11.317  0.1760  0.1615  0.1691
 8707PP      PP18811  13.011  10.570  11.757  0.0232  0.0061  0.0745
 8708PP      PP18812  13.903   3.455   1.498 -0.1197 -0.2877  0.4105
 8709PP      PP18813   7.402   8.652   2.558  0.1008  0.0629  0.0886
 8710PP      PP18814   6.856  15.699  10.510 -0.0670 -0.0061  0.1303
 8711PP      PP18815   5.633   0.626   9.737  0.1179  0.0839 -0.0039
 8712PP      PP18816  11.760   7.600   0.150 -0.2123 -0.0609 -0.0065
 8713PP      PP18817   9.857   0.956   2.100 -0.0023 -0.2829  0.1884
 8714PP      PP18818  11.809  12.927   8.397  0.0363  0.1210  0.0792
 8715PP      PP18819   3.025  11.563   1.016 -0.1483 -0.0354  0.3865
 8716PP      PP18820  13.901  11.528   0.783 -0.0241 -0.1933  0.4521
 8717PP      PP18821   6.734  11.912   9.902  0.0619 -0.0118  0.0858
 8718PP      PP18822   1.872   1.462  11.736 -0.0359 -0.3642  0.0720
 8719PP      PP18823  15.589   3.115   9.263  0.0824  0.0841 -0.0831
 8720PP      PP18824   7.509   5.635  10.531  0.0323 -0.1606 -0.0859
 8721PP      PP18825  14.241   1.392   9.716 -0.0246 -0.0355  0.2438
 8722PP      PP18826   2.588  11.692   9.794 -0.0081  0.3648 -0.2909
 8723PP      PP18827  15.093   2.732   9.638  0.0167 -0.2018  0.1897
 8724PP      PP18828   3.442   8.786   0.055 -0.0172 -0.1654  0.0423
 8725PP      PP18829   7.955   0.902   8.766  0.1038  0.0258  0.0302
 8726PP      PP18830  12.623  10.910   8.628 -0.0558 -0.0881  0.0015
 8727PP      PP18831  10.014   9.489   2.942 -0.1040  0.0240  0.1866
 8728PP      PP18832  14.557   9.867   0.942  0.0242  0.1145  0.1057
 8729PP      PP18833   2.194   5.183   0.933 -0.1184 -0.1298  0.1883
 8730PP      PP18834   9.253   7.647   1.864  0.3661 -0.1579 -0.0220
 8731PP      PP18835   1.378  11.848  10.402 -0.1336  0.1718  0.0163
 8732PP      PP18836   1.924   4.828   2.736 -0.0221 -0.1004  0.2127
 8733PP      PP18837  15.712   6.952  13.316  0.2378 -0.3469 -0.1990
 8734PP      PP18838   7.919   5.577   3.442 -0.3479  0.1515  0.3413
 8735PP      PP18839   8.727  13.841  11.735  0.4638 -0.0740  0.0319
 8736PP      PP18840  11.469   3.136   2.170  0.1754 -0.1844 -0.0478
 8737PP      PP18841   8.210  14.485   8.451 -0.0660  0.1128  0.0283
 8738PP      PP18842  15.410   9.793   0.698 -0.2099  0.1783 -0.2192
 8739PP      PP18843   0.639   7.240   0.174 -0.2287 -0.0270 -0.0427
 8740PP      PP18844  10.682   9.330  10.219 -0.3505  0.2193 -0.0916
 8741PP      PP18845   0.084  10.283  12.386  0.4579  0.2855 -0.2390
 8742PP      PP18846   6.902   0.224   0.438 -0.0409  0.0656  0.1585
 8743PP      PP18847  15.769  15.010  12.916  0.3307  0.0990  0.0584
 8744PP      PP18848   5.609   7.354   3.164  0.2155 -0.0168  0.0168
 8745PP      PP18849  11.798   5.195   2.670 -0.1258 -0.2281  0.2444
 8746PP      PP18850   6.692   1.970   8.787  0.0344  0.1337 -0.3178
 8747PP      PP18851   4.796   9.593  12.283 -0.1002  0.1740  0.4057
 8748PP      PP18852  11.750   0.643   8.560 -0.1495 -0.0471  0.1978
 8749PP      PP18853   9.198   4.540   0.069 -0.1708  0.1543 -0.0206
 8750PP      PP18854   7.553  11.882   0.647 -0.2315  0.1466  0.1161
 8751PP      PP18855  10.417   6.531   2.196  0.0429  0.1155  0.0018
 8752PP      PP18856   1.772  13.746   0.916  0.0859 -0.1669 -0.1122
 8753PP      PP18857   3.252   1.887  11.845 -0.2807 -0.1149 -0.0021
 8754PP      PP18858  10.689  15.059  12.507  0.0603  0.0326  0.1474
 8755PP      PP18859   0.691  12.253   3.493  0.0454  0.0837 -0.1534
 8756PP      PP18860   5.787  11.735  12.698  0.2540  0.3233  0.3315
 8757PP      PP18861  12.420   4.250  12.888  0.2484 -0.1111  0.1925
 8758PP      PP18862   4.538   1.295   9.038 -0.0684 -0.3004  0.0412
 8759PP      PP18863   2.283   9.174   4.528 -0.0563  0.0557 -0.0896
 8760PP      PP18864   8.811   1.616   3.926  0.1826 -0.3344 -0.0842
 8761PP      PP18865   7.884   3.071   0.137 -0.1477 -0.0360 -0.0125
 8762PP      PP18866   6.914  14.372  12.450 -0.1025 -0.1045  0.3604
 8763PP      PP18867   3.108  13.581   0.217  0.1744  0.3736  0.0523
 8764PP      PP18868  12.473   8.621  11.146 -0.0214 -0.1684 -0.1240
 8765PP      PP18869  15.250   0.545   0.268  0.3541 -0.0660  0.2580
 8766PP      PP18870  15.291   4.753   1.278 -0.2733 -0.0979 -0.0700
 8767PP      PP18871   1.763  13.474   2.380  0.0618 -0.2851  0.2290
 8768PP      PP18872   3.017   4.597   4.860  0.0072 -0.2157 -0.1015
 8769PP      PP18873  11.182   2.173   3.466  0.1455  0.2695  0.0186
 8770PP      PP18874  10.254  14.228   9.550 -0.0402  0.1578  0.1014
 8771PP      PP18875   3.338   7.171  12.376 -0.0153 -0.1260 -0.3692
 8772PP      PP18876   8.681  12.990   9.297 -0.1140 -0.0267  0.1049
 8773PP      PP18877   0.161   8.545   0.210  0.1675 -0.3094 -0.0663
 8774PP      PP18878   9.384  10.200   2.324 -0.1749  0.2094 -0.0483
 8775PP      PP18879   4.850  10.283  10.708 -0.1257 -0.4251 -0.1991
 8776PP      PP18880  10.735  13.889  11.873  0.1865  0.1188  0.0752
 8777PP      PP18881   0.012   8.353  11.627  0.0966 -0.2900 -0.1165
 8778PP      PP18882   3.120   7.714  10.356 -0.0626 -0.0246 -0.1001
 8779PP      PP18883   4.427   2.128   3.943 -0.0620 -0.0034 -0.1886
 8780PP      PP18884   1.951   8.047  12.487 -0.2039  0.2209  0.1554
 8781PP      PP18885  11.356   1.996   2.538 -0.1038  0.1949 -0.0632
 8782PP      PP18886   7.282  13.477   8.963  0.4469  0.1554 -0.1250
 8783PP      PP18887  13.380   3.917  11.131 -0.2873  0.1009 -0.1313
 8784PP      PP18888  12.838  12.008   0.136  0.0103 -0.1714 -0.1786
 8785PP      PP18889   7.233   0.589   9.515 -0.2387  0.1109 -0.1005
 8786PP      PP18890   9.853  10.299  10.301  0.0229 -0.0274  0.1629
 8787PP      PP18891   6.436  14.908  10.850  0.3010 -0.1968  0.1553
 8788PP      PP18892   7.140  15.564   2.111  0.3725 -0.1579  0.0185
 8789PP      PP18893   5.525  10.464   2.580  0.0215 -0.0496  0.0579
 8790PP      PP18894   6.707  11.297   1.167 -0.1315  0.0354 -0.1325
 8791PP      PP18895   4.927  15.517   3.101  0.0240 -0.2194 -0.1450
 8792PP      PP18896   0.745  12.154  13.391 -0.1350 -0.3300  0.1736
 8793PP      PP18897   7.502   2.141  12.935 -0.0852  0.2320  0.2094
 8794PP      PP18898  10.123   3.720   8.703  0.1808  0.0125  0.1344
 8795PP      PP18899   6.925   7.747   2.590  0.1299 -0.0315 -0.2940
 8796PP      PP18900   9.432   1.561   1.484 -0.2989 -0.2243 -0.1153
 8797PP      PP18901   2.706  13.266   9.999  0.3072  0.2289  0.1895
 8798PP      PP18902   8.767  10.096   4.896  0.0027 -0.1179  0.1347
 8799PP      PP18903  11.049   4.876  13.362  0.1768 -0.0330  0.1936
 8800PP      PP18904   7.958   9.333   1.390  0.0486 -0.0223 -0.0092
 8801PP      PP18905   1.737   7.926   4.477 -0.0865 -0.1655  0.1493
 8802PP      PP18906  15.068   4.547   3.213  0.0545  0.4181  0.1522
 8803PP      PP18907  14.019  15.206   8.819  0.1334  0.0760 -0.1812
 8804PP      PP18908  14.577  12.711   1.938  0.0492  0.0431 -0.2146
 8805PP      PP18909   0.846  15.821   0.652  0.1337 -0.0006  0.0118
 8806PP      PP18910   4.002   2.936   3.573  0.3464  0.1446  0.2858
 8807PP      PP18911  10.638   8.209   3.332 -0.0169 -0.1149 -0.2376
 8808PP      PP18912   0.133   2.893   0.607 -0.1245  0.2540 -0.0284
 8809PP      PP18913   4.048   1.996   1.513 -0.0249 -0.2768  0.4836
 8810PP      PP18914  11.359  14.283  13.062  0.0156  0.3599  0.1605
 8811PP      PP18915   6.125   6.635  11.739 -0.2256 -0.1018 -0.0918
 8812PP      PP18916   6.633  10.868   3.730  0.0549  0.1087 -0.1808
 8813PP      PP18917   2.693  14.339  11.053  0.0731 -0.1526 -0.0959
 8814PP      PP18918  12.712   2.310  12.954  0.0156  0.1072  0.1221
 8815PP      PP18919   4.897   1.018   4.749 -0.2387  0.4275  0.3318
 8816PP      PP18920  13.368  14.597   0.057 -0.3575 -0.0943  0.2998
 8817PP      PP18921  14.196  11.773   9.435  0.1832 -0.0850 -0.0101
 8818PP      PP18922   5.785   6.641   9.908  0.1266 -0.2140 -0.1313
 8819PP      PP18923  15.483   9.420   1.922 -0.0212 -0.0467  0.3221
 8820PP      PP18924  13.059   3.816  11.566  0.0985 -0.1632  0.0652
 8821PP      PP18925   7.214   4.207   0.712 -0.1494  0.2721 -0.0425
 8822PP      PP18926   9.367   9.490   1.011 -0.1144  0.1527  0.4122
 8823PP      PP18927   8.384   3.343   3.933 -0.0397 -0.5416  0.1615
 8824PP      PP18928  15.111  11.810  10.176 -0.0858  0.1306 -0.3482
 8825PP      PP18929   1.256   1.341  10.264 -0.0892 -0.3666 -0.2138
 8826PP      PP18930  15.597   4.437   0.907 -0.0648  0.1359  0.2029
 8827PP      PP18931   4.492   0.501   2.943 -0.1974  0.1283 -0.2607
 8828PP      PP18932   3.601   9.591  11.302  0.0971  0.0529  0.1863
 8829PP      PP18933   9.555   4.814   2.942  0.2238  0.1261  0.0613
 8830PP      PP18934   7.131   7.053  12.242  0.1718  0.1850  0.0310
 8831PP      PP18935   5.290   6.272   5.204 -0.0180 -0.0253  0.1486
 8832PP      PP18936   8.354  14.674   8.952  0.0989  0.2929  0.2860
 8833PP      PP18937   6.994   9.550  10.064  0.0577 -0.0144 -0.0303
 8834PP      PP18938   9.883   1.501   1.340 -0.0131 -0.1704  0.1411
 8835PP      PP18939   9.334   9.861   3.529  0.2919 -0.1437  0.1285
 8836PP      PP18940  11.096   7.527   8.981  0.0046  0.0232  0.0693
 8837PP      PP18941   8.427   2.221   9.797 -0.0349 -0.3654  0.1449
 8838PP      PP18942  11.360   6.700   0.375 -0.1326 -0.1742  0.3010
 8839PP      PP18943  14.412   4.777   2.346  0.2895  0.0687 -0.2367
 8840PP      PP18944  12.718  12.227  12.626 -0.3046 -0.1030  0.0067
 8841PP      PP18945  15.738  10.280  12.811  0.1678 -0.1838  0.1748
 8842PP      PP18946  14.577   3.438   9.614  0.0910 -0.0467 -0.0826
 8843PP      PP18947   4.523   9.812   4.770  0.0904 -0.1651 -0.0776
 8844PP      PP18948   5.420   0.505   3.000 -0.2731  0.1836  0.0212
 8845PP      PP18949   4.452  10.944   3.053  0.0540  0.2824 -0.0279
 8846PP      PP18950   4.524   7.044   2.423 -0.0839  0.2031  0.1347
 8847PP      PP18951  11.284  10.869   1.197 -0.1834 -0.0990 -0.0359
 8848PP      PP18952  12.595  12.462  12.162  0.0841  0.0145 -0.1312
 8849PP      PP18953   9.826   1.253   9.377 -0.0288 -0.0001 -0.3473
 8850PP      PP18954   0.357   1.723  10.318  0.3078  0.0034 -0.2680
 8851PP      PP18955  15.558   0.242   9.771  0.1574  0.3247 -0.2228
 8852PP      PP18956   1.238  10.352   3.889  0.0158  0.0376 -0.0175
 8853PP      PP18957   6.656   8.927  12.523  0.3602  0.2582 -0.1158
 8854PP      PP18958  11.068  13.086   8.941  0.1574  0.2937 -0.1468
 8855PP      PP18959   8.672  15.707  12.091  0.4074  0.0191 -0.0225
 8856PP      PP18960  14.570  13.493   9.774  0.1774 -0.2672 -0.0395
 8857PP      PP18961  11.876  11.823  11.743 -0.2202 -0.2548  0.0312
 8858PP      PP18962   2.152  14.120  13.342 -0.1474 -0.1948  0.0170
 8859PP      PP18963   9.619   8.809  10.390 -0.0344  0.0680 -0.1212
 8860PP      PP18964  14.388  14.770  13.434 -0.2239  0.2605  0.3493
 8861PP      PP18965  13.480   7.262   1.356 -0.0638 -0.0526  0.4634
 8862PP      PP18966   2.497   8.730   5.307  0.1760 -0.3275 -0.2535
 8863PP      PP18967  14.235  10.839   3.845 -0.0034 -0.1559 -0.2346
 8864PP      PP18968   7.993   3.029   4.490  0.0303 -0.0996 -0.2970
 8865PP      PP18969   6.894   9.169   1.425  0.2765 -0.1308 -0.0164
 8866PP      PP18970   6.526   1.441  10.615  0.1379  0.0057 -0.0212
 8867PP      PP18971   9.292   5.283   0.974 -0.0953 -0.0548 -0.2996
 8868PP      PP18972  14.714   6.714   0.150 -0.0182 -0.1191 -0.4015
 8869PP      PP18973   5.951   7.686   1.674  0.0977 -0.0621  0.5676
 8870PP      PP18974  12.940   6.672   2.100  0.0088 -0.1690 -0.1034
 8871PP      PP18975  10.242  13.128   0.267  0.3916  0.2731 -0.0146
 8872PP      PP18976   4.662   4.350   1.471  0.2227 -0.2219  0.2048
 8873PP      PP18977   3.367   8.991  10.849  0.0036  0.0466  0.0011
 8874PP      PP18978  15.109   4.900   3.629 -0.0433 -0.0163 -0.0338
 8875PP      PP18979  14.143   2.603  11.546 -0.0602 -0.0884  0.0583
 8876PP      PP18980   8.516   6.561   1.223 -0.0873 -0.0412 -0.2849
 8877PP      PP18981   6.676   4.999   1.585  0.1075  0.0324  0.1691
 8878PP      PP18982  12.116   6.251  12.879  0.0040  0.2672 -0.1967
 8879PP      PP18983   6.896   9.132   9.853 -0.0394 -0.0337 -0.1121
 8880PP      PP18984   9.105  13.340   9.108 -0.0485  0.1838  0.3086
 8881PP      PP18985  14.867  14.710   2.985  0.2893 -0.2589  0.1690
 8882PP      PP18986   3.146   8.587  10.680  0.1167  0.0117  0.0188
 8883PP      PP18987   8.951   1.907  11.639 -0.0699 -0.1109  0.1471
 8884PP      PP18988   2.728   4.911  12.084 -0.0967 -0.2439  0.3288
 8885PP      PP18989  15.037   1.846  12.284 -0.0315  0.0198  0.3462
 8886PP      PP18990   5.348  10.377  12.531  0.1768 -0.1583 -0.2916
 8887PP      PP18991   6.761   8.876   3.588  0.2676  0.0606  0.0179
 8888PP      PP18992   7.480   8.948   9.621  0.0718  0.2493 -0.0295
 8889PP      PP18993   9.185   2.303   4.294 -0.1175 -0.0346 -0.2196
 8890PP      PP18994  14.185   9.888  11.479  0.0052  0.1430  0.1366
 8891PP      PP18995   8.754   2.748   0.437 -0.3625  0.0622  0.2636
 8892PP      PP18996  12.791   4.141  11.349  0.0933 -0.1031  0.0945
 8893PP      PP18997   8.639  15.090   9.353 -0.1863  0.0454  0.0073
 8894PP      PP18998  12.463   3.769  10.589  0.3594 -0.2509 -0.3056
 8895PP      PP18999   8.968   9.954  13.430  0.3990 -0.0812 -0.0018
 8896PP      PP19000   4.457  11.779  11.751 -0.2011 -0.0991  0.1397
 8897PP      PP19001   2.713  15.090  11.612 -0.1187  0.2374  0.0451
 8898PP      PP19002   0.246  12.039  12.338 -0.2673  0.1311 -0.0639
 8899PP      PP19003  10.477  15.021  10.933  0.0971 -0.3782 -0.0431
 8900PP      PP19004   1.282   3.465  12.340 -0.0304  0.2199  0.3544
 8901PP      PP19005   8.307   9.118   0.152 -0.0678 -0.0448 -0.3186
 8902PP      PP19006   4.809  11.086   4.622  0.1682 -0.0596 -0.2508
 8903PP      PP19007  11.072   4.418   0.657 -0.1201  0.2992  0.2440
 8904PP      PP19008   9.258  15.078   3.709  0.0510  0.0144  0.1891
 8905PP      PP19009   9.229  10.309   9.281 -0.2165 -0.0415  0.1037
 8906PP      PP19010   3.985   8.697   1.527 -0.0564  0.0266  0.1371
 8907PP      PP19011   3.170  13.139   0.031 -0.0960 -0.1118 -0.2344
 8908PP      PP19012  10.222  12.457   0.820  0.0156 -0.2745 -0.1557
 8909PP      PP19013  11.470  10.123   2.383  0.1199  0.3337  0.1852
 8910PP      PP19014  15.565   4.464   9.401 -0.1384  0.1332 -0.1805
 8911PP      PP19015   3.833  14.742  10.415  0.1526  0.0576 -0.1309
 8912PP      PP19016  12.981   4.602   2.089  0.0316 -0.2869 -0.1312
 8913PP      PP19017   2.670   5.843   0.780 -0.0754 -0.2843  0.0030
 8914PP      PP19018   3.541   6.343  12.647  0.0155 -0.0678 -0.1048
 8915PP      PP19019   6.714  13.502   4.895 -0.2501 -0.2020 -0.1777
 8916PP      PP19020   6.874   6.194  10.083  0.3017  0.3809  0.1199
 8917PP      PP19021   3.014   0.608  11.023  0.3963  0.2296  0.1038
 8918PP      PP19022   7.558  14.983  12.257 -0.1879 -0.1526  0.0090
 8919PP      PP19023   4.758  14.406   9.112  0.2724 -0.1367 -0.3192
 8920PP      PP19024   0.064   2.611   0.155 -0.1425 -0.2053  0.2018
 8921PP      PP19025   8.743  11.393   9.995  0.0590  0.0068  0.2209
 8922PP      PP19026   7.758  11.043   3.399  0.0053  0.1822  0.1870
 8923PP      PP19027   7.517   2.715   0.854 -0.4135  0.0983  0.0011
 8924PP      PP19028   0.267   4.231   4.192 -0.1341  0.3426 -0.0563
 8925PP      PP19029  14.707  15.443  11.803  0.1254  0.1398  0.4535
 8926PP      PP19030  10.539   1.541   1.639 -0.0434  0.0945  0.1511
 8927PP      PP19031  11.981   1.545  11.024 -0.2228  0.0325  0.0676
 8928PP      PP19032  10.254  12.108  12.258  0.2267 -0.0534  0.1071
 8929PP      PP19033   4.203   4.610   1.285  0.3223 -0.3419  0.0086
 8930PP      PP19034  10.091   3.374   3.575  0.0756 -0.1674  0.2345
 8931PP      PP19035   9.610   4.192   0.511  0.2551 -0.0262  0.1033
 8932PP      PP19036   5.828   4.914   9.683  0.0625  0.1132 -0.1032
 8933PP      PP19037   6.245  11.079  11.108  0.0130  0.0743 -0.0189
 8934PP      PP19038  11.227   2.768   0.658 -0.0657  0.0574 -0.2562
 8935PP      PP19039  12.215  12.359  12.981 -0.3632  0.3142  0.0351
 8936PP      PP19040   6.613  13.999   5.552 -0.1605  0.0733 -0.1525
 8937PP      PP19041  12.980   9.296   3.808  0.1177 -0.1977 -0.0528
 8938PP      PP19042  10.226  10.102   9.119  0.2150 -0.0058 -0.2909
 8939PP      PP19043   4.970  14.560   0.039 -0.1474 -0.2482 -0.1356
 8940PP      PP19044  10.887  12.732   9.982  0.0673 -0.1481  0.1351
 8941PP      PP19045  10.937   7.390  11.272 -0.0877 -0.0895 -0.1347
 8942PP      PP19046   5.844   3.800   2.955  0.2069 -0.2361 -0.1449
 8943PP      PP19047   2.526   8.043   2.431 -0.0688  0.4183  0.1425
 8944PP      PP19048  14.970   5.774  11.105 -0.0786 -0.1483 -0.1923
 8945PP      PP19049  12.805   3.287   2.507 -0.2186 -0.0885 -0.2695
 8946PP      PP19050   4.524  15.536   4.204  0.2059  0.0819 -0.0390
 8947PP      PP19051  12.556   3.982   0.769 -0.0770  0.1380  0.1523
 8948PP      PP19052  14.634  15.018  12.907  0.2020 -0.0738 -0.2992
 8949PP      PP19053   5.386  11.039   1.055 -0.2146 -0.0067  0.1746
 8950PP      PP19054   1.156   9.481   1.530 -0.0819  0.3601 -0.1343
 8951PP      PP19055   2.675   9.064  13.322 -0.0500 -0.0096  0.1698
 8952PP      PP19056   9.379   1.067   1.266  0.1396 -0.0003  0.1520
 8953PP      PP19057   7.122   1.507   1.731  0.0111 -0.0933  0.0696
 8954PP      PP19058   7.986   4.769   1.928  0.2799  0.2040 -0.2098
 8955PP      PP19059   1.190  10.769  12.900 -0.2007  0.0712  0.1508
 8956PP      PP19060  12.233  11.998   2.702 -0.0072 -0.0352 -0.1308
 8957PP      PP19061   8.099  10.918   8.740  0.0775 -0.0921 -0.0246
 8958PP      PP19062  12.019  11.825   9.756 -0.1144 -0.1173  0.3360
 8959PP      PP19063   7.594  11.267  13.160  0.0044 -0.0327 -0.2882
 8960PP      PP19064   1.401   9.172   4.724  0.3593 -0.0062 -0.1886
 8961PP      PP19065   3.718   6.293   4.423 -0.0926 -0.1818 -0.1960
 8962PP      PP19066  10.191  12.333   7.649 -0.0477 -0.1132  0.1699
 8963PP      PP19067  11.120  13.963  10.669 -0.3055 -0.1407  0.0968
 8964PP      PP19068  11.017   8.066  13.413  0.0417  0.1797  0.1317
 8965PP      PP19069  13.939  10.073   0.729 -0.0250  0.0018  0.1699
 8966PP      PP19070  13.427   8.446   3.651  0.3859  0.0771 -0.1626
 8967PP      PP19071  14.443   1.883   1.100  0.1674  0.0553  0.1303
 8968PP      PP19072  12.317   9.459   0.457 -0.0159  0.1119  0.0128
 8969PP      PP19073  12.806   7.876   2.373 -0.1602  0.1770 -0.0688
 8970PP      PP19074   2.840   3.253   3.869 -0.2637 -0.2633 -0.1849
 8971PP      PP19075   1.269   7.164   5.059  0.5559  0.1443  0.1397
 8972PP      PP19076   4.561  15.262  10.980 -0.0039 -0.1271  0.0228
 8973PP      PP19077   3.257  10.349   0.771  0.1908  0.1970 -0.2276
 8974PP      PP19078   3.276  14.269  12.540 -0.3177 -0.1368 -0.0004
 8975PP      PP19079   6.007  10.232   4.930  0.0392 -0.1924  0.0540
 8976PP      PP19080   1.946  11.171   1.365  0.1561  0.0310 -0.1183
 8977PP      PP19081   6.041  14.666   9.945  0.1831 -0.0242  0.0824
 8978PP      PP19082  10.651  12.053  13.146 -0.1977 -0.1746 -0.1345
 8979PP      PP19083   6.192   7.826   9.987  0.1795  0.4047  0.3126
 8980PP      PP19084   4.500  13.135   2.965 -0.0201 -0.0063 -0.0648
 8981PP      PP19085   1.610   7.183   0.208 -0.1145  0.1617  0.3272
 8982PP      PP19086   8.758  12.689   9.740  0.0667 -0.0234 -0.1517
 8983PP      PP19087   3.304   6.135   4.044  0.1356  0.1914  0.4684
 8984PP      PP19088   9.649   6.505  13.202 -0.1643 -0.0633  0.0172
 8985PP      PP19089  11.696  13.185   7.953  0.0806  0.0726  0.0289
 8986PP      PP19090   9.350   5.524   4.218  0.1912  0.5752 -0.0626
 8987PP      PP19091   3.264   3.408   9.869 -0.1111 -0.0170 -0.1503
 8988PP      PP19092  15.262  13.538   3.644  0.0062  0.1220 -0.1771
 8989PP      PP19093   1.264  11.138   1.736  0.1115 -0.1524  0.2027
 8990PP      PP19094   1.790  14.848   2.764  0.1364 -0.0199  0.4285
 8991PP      PP19095   9.911   2.230   0.901 -0.0510  0.3450 -0.5072
 8992PP      PP19096   3.451   9.716   0.036  0.1557  0.0123  0.4056
 8993PP      PP19097   2.412   7.944  11.119  0.2394 -0.0174  0.1448
 8994PP      PP19098   5.954   9.870  12.429 -0.0180  0.0652 -0.2372
 8995PP      PP19099   6.780   6.343  10.984 -0.2630  0.1375 -0.1553
 8996PP      PP19100   6.157   4.652   3.878  0.1178 -0.2606 -0.0313
 8997PP      PP19101   5.474   9.186  10.389 -0.0370 -0.0187 -0.0607
 8998PP      PP19102  12.427   5.651   9.503 -0.0581  0.2513  0.2195
 8999PP      PP19103  14.287   3.187   9.240  0.4858 -0.0776  0.3409
 9000PP      PP19104   1.591   5.896   3.318 -0.0119  0.1045  0.0793
 9001PP      PP19105   2.867  11.109  11.996  0.0615  0.3090  0.3426
 9002PP      PP19106  15.794   9.770   9.629 -0.0024  0.4411  0.1734
 9003PP      PP19107  13.062  15.356   0.850 -0.2683 -0.1100  0.1264
 9004PP      PP19108  13.775   7.254   2.992  0.0599  0.0669  0.2656
 9005PP      PP19109   4.070  13.695  13.358  0.1025  0.0176  0.2067
 9006PP      PP19110   0.786   6.369   2.309  0.0209 -0.0314 -0.4371
 9007PP      PP19111  12.056   0.608  11.060  0.0142 -0.2936  0.1131
 9008PP      PP19112  14.456  13.529  11.935 -0.2376 -0.1000  0.0576
 9009PP      PP19113   8.854   6.395   3.962 -0.1371  0.0514 -0.0894
 9010PP      PP19114   1.326   9.743   2.501  0.0798  0.1757 -0.0052
 9011PP      PP19115  13.503   5.670   0.850 -0.0169  0.0015 -0.1131
 9012PP      PP19116   0.630  12.800   9.778 -0.1863 -0.2490  0.2551
 9013PP      PP19117  12.214  15.701   2.259 -0.2111 -0.1516  0.1855
 9014PP      PP19118   3.777   9.406  10.885  0.3278 -0.3230  0.1552
 9015PP      PP19119   1.450  10.678   3.422 -0.2094  0.1181 -0.1571
 9016PP      PP19120   6.233  15.678   9.475  0.1467  0.2831  0.0058
 9017PP      PP19121   0.511   5.109   2.451 -0.3668 -0.3230 -0.2246
 9018PP      PP19122  14.290   2.078   3.508 -0.0740  0.0987  0.3965
 9019PP      PP19123  12.130   4.211   2.755  0.1025 -0.3256 -0.2346
 9020PP      PP19124   5.137   7.175  11.885 -0.2557  0.3040  0.2182
 9021PP      PP19125   0.739  10.318   4.699  0.0114 -0.1215  0.1983
 9022PP      PP19126   8.743   6.632  11.241  0.0766  0.1738  0.0423
 9023PP      PP19127  10.577  15.048   3.302 -0.2205 -0.2147 -0.5555
 9024PP      PP19128  15.300   4.615  12.399  0.0874  0.0299  0.0404
 9025PP      PP19129   9.441   9.818   9.375  0.1262 -0.0467  0.0415
 9026PP      PP19130   4.663   7.770   9.155  0.1516 -0.0918 -0.2698
 9027PP      PP19131   0.382  10.860   2.168 -0.0536  0.1620  0.0706
 9028PP      PP19132   2.227   5.419   3.943 -0.0609  0.0231 -0.0612
 9029PP      PP19133   8.180  14.400   0.950  0.1588 -0.2182 -0.0428
 9030PP      PP19134   2.863  14.288   1.113  0.1737 -0.0369  0.0905
 9031PP      PP19135  15.372  15.864   4.126  0.0915  0.1229  0.0221
 9032PP      PP19136   6.586  10.306  11.121 -0.4933  0.2960 -0.1713
 9033PP      PP19137  10.082  15.407   2.535 -0.1340 -0.2239 -0.1850
 9034PP      PP19138   0.928   3.183   0.030  0.1489 -0.1565  0.1608
 9035PP      PP19139   3.727   3.714  11.662 -0.0925 -0.1733  0.0881
 9036PP      PP19140  12.343  10.543  11.162 -0.2810 -0.0098  0.1863
 9037PP      PP19141   3.314  12.630  12.047  0.1751  0.0706 -0.1917
 9038PP      PP19142   5.557  13.516   4.173 -0.4167  0.4195  0.3967
 9039PP      PP19143  15.113  10.424   1.423  0.0195  0.2186 -0.1062
 9040PP      PP19144   1.940  14.207   4.499  0.2765  0.1200  0.1235
 9041PP      PP19145  15.330  13.390   9.355 -0.0858  0.1714  0.1874
 9042PP      PP19146   1.907  13.866   1.491  0.0835  0.1399 -0.0582
 9043PP      PP19147   9.650  13.961  12.061  0.2318  0.2685 -0.0965
 9044PP      PP19148  15.708   9.390   0.565 -0.3165 -0.2582  0.3415
 9045PP      PP19149  13.006   4.233  10.245 -0.0249 -0.0709  0.0458
 9046PP      PP19150   9.912   4.692   0.690  0.0132  0.1232  0.1806
 9047PP      PP19151   2.889  11.393   1.524  0.0929 -0.0358 -0.1702
 9048PP      PP19152  15.593  11.690   9.206 -0.0663  0.3017 -0.0592
 9049PP      PP19153  13.461  10.643  13.276 -0.0361  0.1003 -0.1262
 9050PP      PP19154   1.977   9.299  11.397  0.5729  0.3178  0.0541
 9051PP      PP19155   0.230  15.398   8.756  0.1829  0.0268  0.0565
 9052PP      PP19156   8.604  12.543   1.305  0.1735  0.0132 -0.1097
 9053PP      PP19157   4.202   1.035  11.278  0.2527  0.3283 -0.0308
 9054PP      PP19158   0.333  11.014   9.228  0.2614  0.0476  0.1302
 9055PP      PP19159   8.055   0.998   3.652  0.0053  0.1411 -0.1271
 9056PP      PP19160   8.536  14.929  13.263  0.0201  0.3802 -0.1096
 9057PP      PP19161   5.168   9.632  10.272  0.1516  0.0468  0.0334
 9058PP      PP19162   3.347   9.669   2.589  0.0053 -0.0719  0.1754
 9059PP      PP19163   9.741   3.348   3.912  0.2333  0.3810 -0.1438
 9060PP      PP19164  13.706   4.305   0.731 -0.0883 -0.3384  0.2643
 9061PP      PP19165   3.550  10.183   3.623 -0.3940  0.1619  0.1432
 9062PP      PP19166   2.818  12.159  12.560 -0.1176  0.0226 -0.2458
 9063PP      PP19167   5.653  13.196   8.843 -0.0213  0.2020 -0.0760
 9064PP      PP19168   2.452  10.469   3.132  0.0588 -0.2935  0.0005
 9065PP      PP19169  14.163   9.947  10.755 -0.0553  0.0430  0.0079
 9066PP      PP19170  10.358  15.064  10.324  0.1123  0.3436 -0.0502
 9067PP      PP19171  11.790   2.393   9.536 -0.1127 -0.0909 -0.1592
 9068PP      PP19172  15.558   0.827  10.760 -0.0640 -0.2240 -0.4803
 9069PP      PP19173  11.445  10.860   0.748  0.0621 -0.2565  0.0771
 9070PP      PP19174   1.652   8.610   0.495  0.0580  0.1179 -0.0030
 9071PP      PP19175   5.069   4.859   0.935 -0.1721  0.0005 -0.2572
 9072PP      PP19176   1.054   7.333  12.880  0.0362 -0.0607 -0.0942
 9073PP      PP19177  12.544  13.041  12.133  0.0427  0.2828  0.0413
 9074PP      PP19178   3.429   8.204   4.851 -0.2277 -0.1214 -0.2337
 9075PP      PP19179   1.510   9.558   0.679 -0.2549 -0.1545 -0.1475
 9076PP      PP19180  11.415   1.602  11.315 -0.0185  0.0546  0.2312
 9077PP      PP19181  13.046   8.584   3.394 -0.0787 -0.0653 -0.1262
 9078PP      PP19182  13.691   6.798   1.706 -0.0723 -0.0604 -0.2559
 9079PP      PP19183   6.268   8.635   3.184 -0.1251 -0.0142  0.0606
 9080PP      PP19184   9.094  10.313   0.558 -0.1041  0.0775 -0.0243
 9081PP      PP19185   8.901   6.935   1.386  0.1875 -0.1257 -0.1831
 9082PP      PP19186  12.646   2.461  10.124 -0.1705 -0.0183  0.1879
 9083PP      PP19187   5.262  11.007  10.192  0.1847  0.2512  0.3639
 9084PP      PP19188   3.929   4.103   1.959 -0.1809  0.0665  0.2313
 9085PP      PP19189   1.410  11.536   3.688  0.1289 -0.2090 -0.3740
 9086PP      PP19190   7.048   4.831   0.331  0.0060  0.1368 -0.2689
 9087PP      PP19191   2.444  13.953   2.165 -0.0558  0.0829 -0.1405
 9088PP      PP19192   4.104   1.461   2.171  0.1639  0.1782 -0.1372
 9089PP      PP19193  10.261  12.994   0.892  0.3346 -0.4737  0.1548
 9090PP      PP19194   9.195  11.728   1.231  0.0449  0.2050 -0.1388
 9091PP      PP19195  11.685  11.840  11.096  0.2654  0.1198  0.0173
 9092PP      PP19196   7.302   8.436  11.904 -0.0404  0.0539 -0.1153
 9093PP      PP19197   7.493  15.734   1.277  0.0767  0.2095  0.0385
 9094PP      PP19198  15.789   4.553   4.410 -0.0346  0.0211 -0.1614
 9095PP      PP19199  12.919   0.266  12.052 -0.2222 -0.1495 -0.1728
 9096PP      PP19200   4.398  15.881   3.854  0.2471 -0.2034 -0.3632
 9097PP      PP19201  11.022   3.395   2.691  0.2928  0.1115  0.0192
 9098PP      PP19202   5.753  13.927   1.953 -0.0583 -0.1754 -0.1161
 9099PP      PP19203   2.582  15.783   0.610 -0.0578  0.1042  0.2160
 9100PP      PP19204   6.966   0.616   2.788  0.0247  0.1165 -0.2482
 9101PP      PP19205   5.674  13.867   3.280  0.0085 -0.0944  0.2345
 9102PP      PP19206  10.249  14.265  10.550  0.3027 -0.0987  0.1187
 9103PP      PP19207  10.868  15.598  11.692 -0.1849  0.2839 -0.1111
 9104PP      PP19208   4.966   1.207  10.774  0.4566 -0.2478 -0.2288
 9105PP      PP19209  11.028   4.840  11.166  0.1103 -0.2920  0.1021
 9106PP      PP19210   6.268   2.613   9.975  0.0273 -0.3808  0.3028
 9107PP      PP19211   3.962  10.952   0.231  0.1013  0.0586 -0.4158
 9108PP      PP19212   6.774   3.895  12.599 -0.1066 -0.2194  0.0953
 9109PP      PP19213   3.073   5.705   0.384  0.1710  0.1468  0.0766
 9110PP      PP19214  13.168   0.039  11.220 -0.3304  0.1617  0.0397
 9111PP      PP19215  13.915  15.682  13.404 -0.0038  0.0306 -0.1751
 9112PP      PP19216   4.994   9.458   2.031  0.3042 -0.4884  0.0843
 9113PP      PP19217   0.138   0.304   2.899 -0.3432  0.3302  0.0478
 9114PP      PP19218   4.464  12.774   4.182  0.1391 -0.4097 -0.0238
 9115PP      PP19219   3.357   6.621  12.220  0.1170  0.1119 -0.2230
 9116PP      PP19220   7.200   3.320   1.687 -0.2037  0.1692 -0.1096
 9117PP      PP19221   0.976  13.921   0.277  0.1503 -0.0156 -0.1534
 9118PP      PP19222   8.973   4.590  11.382 -0.3555 -0.1745 -0.0148
 9119PP      PP19223  15.002  15.655  12.209 -0.0981 -0.4185 -0.0237
 9120PP      PP19224   7.474  11.153   1.561 -0.0992  0.2659 -0.1014
 9121PP      PP19225   2.055  10.196   9.988  0.3287 -0.2880  0.1049
 9122PP      PP19226  15.504  11.192   3.451  0.2136 -0.0611  0.1644
 9123PP      PP19227   0.988  13.724   2.732  0.3007  0.2404 -0.0284
 9124PP      PP19228  15.032  11.965   4.350 -0.0438  0.1274 -0.1101
 9125PP      PP19229   3.169   7.643   5.487  0.0903  0.1876 -0.1015
 9126PP      PP19230   9.125   3.484   0.736  0.0148 -0.0821 -0.2156
 9127PP      PP19231   3.412   5.664   2.955 -0.0748  0.3006 -0.1107
 9128PP      PP19232  14.560   9.210  13.175  0.4047 -0.1373  0.1979
 9129PP      PP19233  12.665   7.374   3.469 -0.0696  0.2998 -0.0511
 9130PP      PP19234  15.098   0.883   8.925 -0.0594 -0.0583 -0.1088
 9131PP      PP19235   9.966   1.760   2.415  0.4644  0.2143 -0.0125
 9132PP      PP19236   8.315   4.581  12.088  0.3608  0.2659  0.2378
 9133PP      PP19237   1.137  11.849   9.982 -0.2885  0.3039  0.3790
 9134PP      PP19238   7.936   3.549   1.286 -0.1449 -0.0342  0.0430
 9135PP      PP19239   6.790  15.854   2.853 -0.1924  0.1867 -0.1436
 9136PP      PP19240  11.447   4.114  12.834  0.1268  0.1504 -0.0506
 9137PP      PP19241   8.340   9.947  12.778  0.1391 -0.1145 -0.1610
 9138PP      PP19242   5.323   5.075  11.349  0.2267 -0.0445  0.0318
 9139PP      PP19243  10.300   0.827   1.228  0.2469  0.1701  0.2621
 9140PP      PP19244  11.476   0.693  13.158  0.2139 -0.1755 -0.2921
 9141PP      PP19245   7.520   3.149   0.615 -0.1513 -0.1347 -0.2238
 9142PP      PP19246   2.131   7.321  13.317  0.2024 -0.2520  0.0679
 9143PP      PP19247   2.326   9.922  11.882  0.0793 -0.3319 -0.4386
 9144PP      PP19248  14.513   8.005  10.394  0.0777  0.4021 -0.0031
 9145PP      PP19249   5.512   8.609   2.103  0.0671 -0.1083 -0.2871
 9146PP      PP19250   7.347   7.058  12.729 -0.0293  0.2578 -0.2242
 9147PP      PP19251  15.702  12.548  11.448 -0.0968  0.0028  0.0554
 9148PP      PP19252   2.010   7.186   3.459  0.1557 -0.0306  0.2751
 9149PP      PP19253   4.642   2.014   2.621 -0.1765  0.2847  0.0506
 9150PP      PP19254   3.008   0.454   9.826 -0.2753  0.0861 -0.6219
 9151PP      PP19255   7.391   8.050   1.916  0.0904  0.2349  0.1815
 9152PP      PP19256   6.504  12.266   0.871  0.1283  0.1251  0.2385
 9153PP      PP19257  11.747   3.064   2.659 -0.1871 -0.1188  0.3550
 9154PP      PP19258   2.956   9.825   9.685 -0.1044  0.2556 -0.1440
 9155PP      PP19259   3.766  15.496   9.696 -0.0203  0.0479  0.1392
 9156PP      PP19260  12.929  13.354   9.546  0.0888  0.0972  0.0239
 9157PP      PP19261   8.591   7.408  13.375  0.3661  0.1533 -0.1338
 9158PP      PP19262   4.007  10.214  10.163  0.0557  0.2041  0.2607
 9159PP      PP19263  13.581  11.038   9.046 -0.1879  0.2485  0.1520
 9160PP      PP19264  11.282  10.120  13.380  0.0652 -0.2531 -0.1057
 9161PP      PP19265  11.000   0.434  13.095  0.3629 -0.2637  0.0892
 9162PP      PP19266  13.217  13.196   8.293 -0.0925 -0.0003 -0.3072
 9163PP      PP19267   5.477  15.228  12.269  0.0744 -0.2360 -0.0657
 9164PP      PP19268   3.885  10.806   3.178 -0.0629  0.0419 -0.1234
 9165PP      PP19269  11.383   5.822  13.212  0.0444 -0.1435 -0.0203
 9166PP      PP19270   5.338   0.876   2.623 -0.1317 -0.0326 -0.0104
 9167PP      PP19271  13.905  15.877   3.959  0.1460 -0.2778 -0.2673
 9168PP      PP19272  10.445   2.665  11.138 -0.3999  0.1228 -0.0362
 9169PP      PP19273   7.140  11.209   0.043  0.0471 -0.0002  0.1118
 9170PP      PP19274   8.330   2.558   0.446 -0.0536  0.0363 -0.2635
 9171PP      PP19275   6.687   3.221   3.650  0.0396  0.2083  0.0414
 9172PP      PP19276   2.939   8.674  10.220 -0.1601  0.0803  0.0907
 9173PP      PP19277   8.720  11.764  12.478  0.1977 -0.0504 -0.0938
 9174PP      PP19278   4.490   5.489  10.833  0.0457 -0.0490  0.0460
 9175PP      PP19279  13.366  11.737  12.851  0.0412  0.0064  0.3177
 9176PP      PP19280   0.669   6.493   9.727 -0.0134  0.1631  0.1672
 9177PP      PP19281   7.697  13.337   2.288 -0.0685 -0.1015 -0.0286
 9178PP      PP19282  10.122   5.510   0.578  0.1808 -0.1728 -0.0083
 9179PP      PP19283  14.118   2.713   1.130 -0.0202 -0.0853 -0.1400
 9180PP      PP19284  13.791  13.142   3.380 -0.0582  0.2394 -0.2696
 9181PP      PP19285  15.869   5.146   9.871  0.2004  0.2963  0.0203
 9182PP      PP19286   7.139  14.971   1.822  0.0390  0.0244 -0.1559
 9183PP      PP19287   9.687  10.456  12.705 -0.1658  0.0587 -0.0816
 9184PP      PP19288  12.869   6.249  12.391  0.1931  0.1477  0.0760
 9185PP      PP19289  13.321   3.528   9.656 -0.2526  0.2036 -0.4587
 9186PP      PP19290  15.750   5.113  13.185  0.3809 -0.0393 -0.2445
 9187PP      PP19291   4.475   5.271   9.636  0.2286  0.0880 -0.1091
 9188PP      PP19292   4.830  11.562   1.346 -0.1217  0.3224 -0.0989
 9189PP      PP19293  10.758  13.727  11.387 -0.0142 -0.0944  0.0987
 9190PP      PP19294  12.207   8.942  12.150 -0.1311  0.1848  0.0991
 9191PP      PP19295  13.703   5.537   2.514 -0.1011 -0.1768 -0.1941
 9192PP      PP19296  10.186   8.634  11.130  0.0525  0.0592 -0.0254
 9193PP      PP19297   9.006   0.586   0.448  0.0553 -0.0166 -0.0722
 9194PP      PP19298  15.221  14.266   3.734 -0.1320 -0.2297  0.2571
 9195PP      PP19299  12.960   4.498   3.776 -0.1442 -0.4049 -0.0167
 9196PP      PP19300   7.984   7.279  10.744  0.1187  0.1161 -0.0192
 9197PP      PP19301   0.584   0.431   9.207  0.2562 -0.1320  0.1307
 9198PP      PP19302   7.511   5.501   0.841  0.0823  0.3133  0.1014
 9199PP      PP19303   6.683  13.429   2.498  0.0896 -0.1813  0.1450
 9200PP      PP19304   7.709  12.171   3.885 -0.1560 -0.2144 -0.1016
 9201PP      PP19305   4.545   8.103   0.267  0.1959  0.2355 -0.2473
 9202PP      PP19306   1.313   8.101   4.319  0.0661  0.1373  0.2589
 9203PP      PP19307  12.060  12.200  13.427  0.3074 -0.1741 -0.0360
 9204PP      PP19308   9.053   9.453   2.764 -0.1297 -0.1640 -0.3057
 9205PP      PP19309   0.244   9.455   2.629 -0.3362 -0.2647 -0.1809
 9206PP      PP19310   6.267   2.126  10.972 -0.0245 -0.1685 -0.0087
 9207PP      PP19311  14.032   2.258  10.607 -0.0227  0.1014  0.2769
 9208PP      PP19312   2.191   2.458  11.273  0.0350 -0.2253 -0.2163
 9209PP      PP19313  14.652  10.194  10.155 -0.2787 -0.0881 -0.0667
 9210PP      PP19314   5.152   8.200  12.078  0.0972  0.0478 -0.0443
 9211PP      PP19315  13.181  10.032   0.529  0.0267 -0.1084 -0.2036
 9212PP      PP19316  14.222   3.260  12.712  0.1766 -0.1071  0.1070
 9213PP      PP19317  15.394  15.020   1.595 -0.0646  0.1536  0.0855
 9214PP      PP19318   6.684   3.706   9.259 -0.0790 -0.0160 -0.1294
 9215PP      PP19319   9.720   1.721   1.938  0.1868 -0.0584 -0.0080
 9216PP      PP19320   6.470   3.995   3.737  0.0907  0.1329  0.2578
 9217PP      PP19321   6.232  14.003  10.415  0.3400  0.3313 -0.1516
 9218PP      PP19322  13.825   3.711  11.365 -0.0973  0.1790 -0.0531
 9219PP      PP19323   5.722  10.725  12.515 -0.2133 -0.2981 -0.1428
 9220PP      PP19324  14.707   4.342   0.411  0.1296 -0.1426  0.1751
 9221PP      PP19325   3.159   5.610   5.095 -0.0093 -0.1798 -0.1129
 9222PP      PP19326   8.161   8.794   1.346  0.1226 -0.0706 -0.2878
 9223PP      PP19327  11.502   7.399   3.186 -0.0499 -0.0180 -0.0039
 9224PP      PP19328  11.759   3.873   9.496  0.0026  0.1264 -0.0995
 9225PP      PP19329  14.408  13.026  11.876 -0.1171 -0.2136  0.0051
 9226PP      PP19330  11.555   7.156  11.775  0.1549  0.1458 -0.0338
 9227PP      PP19331   6.619  14.861  12.715  0.1395 -0.0985 -0.0609
 9228PP      PP19332   4.655   2.994   4.955  0.0574 -0.0035 -0.0788
 9229PP      PP19333  10.906   3.044   4.068  0.0209  0.3160  0.0468
 9230PP      PP19334  13.197   3.161   4.290  0.1765  0.2839  0.0612
 9231PP      PP19335   1.514   8.852  12.484 -0.0965  0.2771 -0.0697
 9232PP      PP19336  15.231   8.524  11.200  0.0508 -0.0899  0.0795
 9233PP      PP19337  13.169   8.425   9.171  0.0246 -0.0139 -0.2268
 9234PP      PP19338   9.379   7.365   9.535 -0.3460 -0.1554 -0.1068
 9235PP      PP19339   5.286  11.426   2.758  0.0729 -0.1388 -0.1751
 9236PP      PP19340   1.962   7.494   0.517  0.0886  0.0521 -0.1542
 9237PP      PP19341   2.115  10.544   4.220  0.1054  0.1015 -0.0871
 9238PP      PP19342  13.464   2.645   1.285  0.0334  0.0871 -0.0570
 9239PP      PP19343   5.385   0.384   3.479 -0.1818  0.0665  0.0121
 9240PP      PP19344   6.226   3.109   3.916 -0.0090  0.0082  0.0409
 9241PP      PP19345   7.378   9.501   3.163  0.0316  0.0224  0.0647
 9242PP      PP19346   2.574   8.248   4.649  0.2249 -0.0961 -0.2104
 9243PP      PP19347   0.545  11.043   3.789 -0.2924  0.2303  0.1613
 9244PP      PP19348   0.975   6.509   4.296  0.1067  0.1046 -0.3009
 9245PP      PP19349   1.757   2.879   1.334 -0.2066  0.0890  0.1265
 9246PP      PP19350   3.822  14.849  11.023 -0.1533  0.0989  0.1971
 9247PP      PP19351  12.540   9.068  11.478 -0.3680  0.0512  0.0609
 9248PP      PP19352   5.244   0.649   0.471  0.1115  0.2715 -0.2505
 9249PP      PP19353   8.439  11.755   0.720  0.0337 -0.1440  0.1624
 9250PP      PP19354  14.669  11.480   9.592  0.1054  0.0794  0.1536
 9251PP      PP19355  10.428   3.281   0.350 -0.1661 -0.0849 -0.3396
 9252PP      PP19356   7.139  10.793   4.600  0.0411 -0.2460  0.3221
 9253PP      PP19357  15.172   9.118   4.249 -0.2063  0.1723  0.0763
 9254PP      PP19358   6.786   4.889  12.418 -0.0523  0.0208 -0.0901
 9255PP      PP19359  14.320   9.713   2.740 -0.0332 -0.4289  0.3455
 9256PP      PP19360   9.083   9.004   2.335  0.1024 -0.1683 -0.2767
 9257PP      PP19361   9.069   6.338   0.539  0.1800  0.0196 -0.1608
 9258PP      PP19362   5.154   2.815   9.855 -0.1273 -0.1976  0.1884
 9259PP      PP19363   9.239  11.807  12.722 -0.2017 -0.1296  0.2106
 9260PP      PP19364  14.360   5.449  11.019 -0.0641  0.0207  0.4479
 9261PP      PP19365  10.496   5.130   4.180 -0.1112 -0.0120 -0.1695
 9262PP      PP19366   2.757   5.451  11.956  0.0715 -0.4062 -0.3110
 9263PP      PP19367  12.287   0.826   3.122 -0.2325  0.1152  0.0488
 9264PP      PP19368  10.599  14.622   9.609 -0.0592  0.1283 -0.0834
 9265PP      PP19369  15.803   1.251   3.189 -0.1956  0.0100  0.4169
 9266PP      PP19370   8.538   5.509  11.216 -0.3389  0.1535  0.0143
 9267PP      PP19371  15.273  12.518   9.331  0.1665  0.1610 -0.0524
 9268PP      PP19372   9.656   1.340   3.937 -0.0436  0.2465  0.2048
 9269PP      PP19373   5.984  12.484   3.697  0.0162  0.3158  0.1848
 9270PP      PP19374   2.346  13.715   1.653  0.2417  0.2016 -0.3926
 9271PP      PP19375   2.122   5.402   2.545 -0.0166  0.2343  0.0713
 9272PP      PP19376   6.059   9.814   0.647  0.1379  0.4012 -0.0768
 9273PP      PP19377  11.389   1.593   1.862  0.3691  0.0790 -0.1057
 9274PP      PP19378  15.767   8.213   0.346 -0.0287  0.1268 -0.2591
 9275PP      PP19379   1.400  14.995   0.577  0.2632 -0.2059 -0.0411
 9276PP      PP19380   3.575  10.350  10.495 -0.2723 -0.2760 -0.1457
 9277PP      PP19381  12.946  12.024  10.815 -0.3293  0.1630 -0.1455
 9278PP      PP19382   6.304  12.047  10.135 -0.0290 -0.1277  0.0663
 9279PP      PP19383   8.408  11.045   1.352 -0.3209 -0.1176 -0.0141
 9280PP      PP19384   5.221  14.816   2.029  0.0962  0.0392 -0.1466
 9281PP      PP19385  13.419   0.951   0.765  0.4285 -0.0684 -0.3125
 9282PP      PP19386   5.928  11.975   9.251  0.0609 -0.1739 -0.0783
 9283PP      PP19387   0.271   6.315   2.839 -0.1742 -0.1157 -0.3502
 9284PP      PP19388  13.202   3.305   3.797  0.0626 -0.0861  0.1347
 9285PP      PP19389  10.688  13.060   2.364 -0.2878 -0.1313 -0.3973
 9286PP      PP19390   0.020   2.679   1.065  0.0869  0.3211  0.0239
 9287PP      PP19391   1.587   2.307   3.797 -0.1689 -0.0244 -0.0003
 9288PP      PP19392   7.789  14.521  11.330 -0.1929 -0.0091 -0.1672
 9289PP      PP19393  13.884  14.862   0.875  0.2479  0.0645  0.0983
 9290PP      PP19394   1.327   0.071   9.927  0.1114 -0.3430  0.0913
 9291PP      PP19395  15.227   1.367   0.763 -0.2521  0.1234 -0.0453
 9292PP      PP19396   7.592   3.601  13.406  0.0967 -0.0802 -0.2855
 9293PP      PP19397   6.240   9.267  12.498  0.4190  0.0145 -0.2547
 9294PP      PP19398   8.657  15.636   3.126 -0.1824  0.2004 -0.0090
 9295PP      PP19399  15.664   1.851   9.088  0.1670  0.3540  0.1540
 9296PP      PP19400  12.021   8.883  12.664  0.0856 -0.1480  0.0363
 9297PP      PP19401   6.405   2.963  12.449 -0.0240 -0.0519  0.0108
 9298PP      PP19402   2.844   8.824   3.468  0.0494  0.4663  0.2086
 9299PP      PP19403   0.166   6.692   1.329  0.3180  0.0473  0.0673
 9300PP      PP19404   9.794  15.794  10.082 -0.1414 -0.0447 -0.0584
 9301PP      PP19405  15.011   2.571   8.879  0.1110 -0.1421  0.3265
 9302PP      PP19406  15.760  10.169   3.277  0.2177 -0.1287  0.1235
 9303PP      PP19407   4.862   6.498   1.678 -0.1342 -0.1266  0.0782
 9304PP      PP19408  15.488   8.141   5.190  0.3517 -0.2316  0.1863
 9305PP      PP19409   9.081  12.898  10.718  0.0534  0.1181 -0.0633
 9306PP      PP19410  11.540  11.675   1.681  0.3786  0.0218  0.3729
 9307PP      PP19411   5.372   1.306  10.543  0.0055  0.0157  0.3034
 9308PP      PP19412   8.860   7.999   1.942 -0.1741  0.0660  0.0586
 9309PP      PP19413  14.515  12.285   0.176  0.3433 -0.0087  0.0929
 9310PP      PP19414  12.623   7.768   9.361  0.0426  0.2078 -0.0688
 9311PP      PP19415   4.382   7.981   4.459  0.0275 -0.1685  0.0958
 9312PP      PP19416   9.312  14.551   3.812  0.2293 -0.0395 -0.2444
 9313PP      PP19417   4.229  10.555   2.283 -0.1081  0.1499 -0.1854
 9314PP      PP19418   0.043  10.670  11.639 -0.0603 -0.0409  0.2271
 9315PP      PP19419  15.640  14.775  10.197 -0.1006  0.1704  0.0462
 9316PP      PP19420   4.617   4.190   4.993  0.2219 -0.1415 -0.0472
 9317PP      PP19421  11.984   5.375   2.131  0.1125 -0.1270 -0.4215
 9318PP      PP19422   0.890   0.428   3.521 -0.2002 -0.1392  0.2665
 9319PP      PP19423   3.735  14.696   9.190 -0.1130  0.3507  0.2060
 9320PP      PP19424   2.075   9.995  11.364  0.0327 -0.0755 -0.0925
 9321PP      PP19425   9.869  10.057  11.834  0.2305  0.1388  0.0850
 9322PP      PP19426   0.723  14.946  13.403 -0.0718 -0.1868  0.1962
 9323PP      PP19427  15.599  12.693   2.632  0.3222  0.0026  0.3820
 9324PP      PP19428  12.325  12.033  10.660  0.4322  0.1608  0.0000
 9325PP      PP19429   0.824   1.662  10.557 -0.2556 -0.0562 -0.2589
 9326PP      PP19430   7.215   3.442  12.731 -0.0243 -0.2852  0.1694
 9327PP      PP19431   2.717   1.369   3.729  0.0571 -0.0441  0.0263
 9328PP      PP19432   2.041   6.584   0.606  0.1118 -0.1490 -0.2906
 9329PP      PP19433  13.880  10.411  11.224  0.0570  0.0549  0.1945
 9330PP      PP19434   2.078   1.558  11.264  0.0482  0.0758 -0.1982
 9331PP      PP19435   2.468   9.504   0.056  0.0699  0.0861  0.1901
 9332PP      PP19436  11.750   8.987  10.327 -0.1753 -0.3897  0.1590
 9333PP      PP19437   0.618   1.743   0.022 -0.0531 -0.1745  0.0997
 9334PP      PP19438   9.715   3.284   1.190 -0.1647 -0.1568 -0.0778
 9335PP      PP19439   4.764   1.554   0.664 -0.1438 -0.0637 -0.0376
 9336PP      PP19440   8.125   7.594  13.167  0.1084 -0.1721  0.4121
 9337PP      PP19441   0.775   9.711  10.426 -0.0261  0.0469 -0.0466
 9338PP      PP19442   6.365   5.879   0.428  0.3398  0.2419 -0.0165
 9339PP      PP19443   6.300   0.083  12.767  0.1399 -0.0964  0.1373
 9340PP      PP19444   5.584   2.293   0.219 -0.1759 -0.2112 -0.3881
 9341PP      PP19445   6.354   9.915   1.055  0.2619 -0.3271 -0.2074
 9342PP      PP19446  15.859   6.897  12.751  0.0783  0.0970 -0.1936
 9343PP      PP19447  13.320  12.727  11.751  0.2254 -0.0798  0.0349
 9344PP      PP19448  14.440  11.305   9.181 -0.0691  0.2152  0.1489
 9345PP      PP19449   5.930   0.919   1.214  0.0689 -0.2058 -0.0222
 9346PP      PP19450   7.598  12.464  12.337  0.0970  0.2119 -0.1229
 9347PP      PP19451  11.367  12.672   3.860  0.1271 -0.0554  0.1329
 9348PP      PP19452   4.019   4.706  12.612  0.2315  0.0296 -0.0216
 9349PP      PP19453   5.259   9.738   4.066  0.0631 -0.0164  0.0714
 9350PP      PP19454  14.945   1.119   1.138 -0.0577  0.0952  0.1017
 9351PP      PP19455   5.311  12.635  12.358  0.0227  0.0975  0.0382
 9352PP      PP19456  11.832   1.869  12.055  0.0462 -0.2076  0.2117
 9353PP      PP19457  12.116   0.621  11.677  0.1436  0.2368 -0.1213
 9354PP      PP19458   6.393   3.879  11.658  0.2969  0.0932 -0.0447
 9355PP      PP19459  13.718  12.329   3.558 -0.2735  0.1812 -0.0448
 9356PP      PP19460   1.656  14.769   1.869  0.0939  0.2837 -0.3321
 9357PP      PP19461  12.330  13.475  12.188  0.1199 -0.2611  0.0159
 9358PP      PP19462   9.810   2.859   2.170  0.0568  0.3422 -0.0647
 9359PP      PP19463   6.896   2.214  11.015 -0.1900  0.2292 -0.3022
 9360PP      PP19464   7.178   8.553   4.515 -0.0911 -0.3492 -0.1862
 9361PP      PP19465  11.770   0.803  10.494  0.1960 -0.3684  0.0084
 9362PP      PP19466   5.807   6.586   1.662 -0.0408  0.1877 -0.3244
 9363PP      PP19467   7.693   2.703  12.171  0.1508  0.0690  0.0167
 9364PP      PP19468   5.631   4.101   3.366  0.4198  0.2168  0.0186
 9365PP      PP19469   3.067  14.556   9.778 -0.0600  0.0039 -0.0340
 9366PP      PP19470   2.322   6.962  10.398 -0.1059  0.3873 -0.0125
 9367PP      PP19471  12.195  14.951   4.058 -0.1568  0.2629 -0.4045
 9368PP      PP19472  11.232   4.729   8.768 -0.1722  0.0187  0.1688
 9369PP      PP19473   5.070   5.626   4.130  0.1349 -0.1568  0.4308
 9370PP      PP19474   9.229   5.303  12.990 -0.2172  0.0519  0.3567
 9371PP      PP19475  13.552  15.107   3.250 -0.0715 -0.1177  0.0019
 9372PP      PP19476  10.634   7.787  11.406 -0.0456  0.1210 -0.0130
 9373PP      PP19477  11.357  13.962   0.511  0.2378  0.0569 -0.0551
 9374PP      PP19478   6.276  10.816   4.277  0.0331  0.2657 -0.2959
 9375PP      PP19479  11.454  14.591   3.689 -0.2398  0.1546 -0.1225
 9376PP      PP19480   2.101   3.146  13.113 -0.1473 -0.4553 -0.0112
 9377PP      PP19481   0.621  11.909  12.663  0.1204 -0.1103 -0.1135
 9378PP      PP19482  13.443  11.880  10.701  0.0751  0.0164  0.1081
 9379PP      PP19483  10.606   3.121   3.001 -0.2463 -0.3708 -0.2369
 9380PP      PP19484  13.016   9.078  12.967  0.3372 -0.1147 -0.1628
 9381PP      PP19485  10.206   3.394  12.837 -0.1116  0.0889 -0.1908
 9382PP      PP19486   1.652   6.879  11.569 -0.0467  0.1255 -0.1126
 9383PP      PP19487   1.431   4.771  11.508  0.0494 -0.0145  0.1297
 9384PP      PP19488  13.585  14.697   2.851 -0.5957  0.2639  0.4223
 9385PP      PP19489   2.763   3.335  10.989  0.0844  0.1280 -0.0829
 9386PP      PP19490  15.702  11.163  12.430 -0.1863  0.3011 -0.0532
 9387PP      PP19491  15.215  13.390  11.409 -0.0071 -0.0217 -0.1064
 9388PP      PP19492  14.256   6.879  11.773 -0.0361 -0.0324 -0.1350
 9389PP      PP19493   8.654  13.223  10.699 -0.2869  0.1015 -0.1223
 9390PP      PP19494  13.703   1.455   3.830 -0.1834  0.3552  0.3704
 9391PP      PP19495   4.772   4.575  12.181 -0.0699  0.0395 -0.0421
 9392PP      PP19496   4.888   0.531   1.646  0.1152  0.2073  0.3833
 9393PP      PP19497  12.985   6.556   9.603 -0.1333 -0.2388 -0.1172
 9394PP      PP19498  12.759   2.792   2.658 -0.0490 -0.1392 -0.0704
 9395PP      PP19499  15.260   9.541  11.397 -0.0272 -0.0855  0.0669
 9396PP      PP19500  10.455   0.387   0.389 -0.0500 -0.1467 -0.1353
 9397PP      PP19501   5.231   6.545   4.452 -0.2059  0.0944  0.2826
 9398PP      PP19502   6.525   2.006  12.544  0.2055  0.2494 -0.1553
 9399PP      PP19503   4.027  12.709   2.230 -0.1295  0.0056 -0.2521
 9400PP      PP19504   7.809   7.304   5.381 -0.0918  0.1596  0.1108
 9401PP      PP19505   9.094   1.426   1.847  0.0877 -0.0791 -0.1305
 9402PP      PP19506  12.572   2.545   4.293 -0.3885 -0.0724  0.1556
 9403PP      PP19507   9.881   3.066   2.741  0.1311  0.0212  0.1309
 9404PP      PP19508   4.647   5.487   0.080 -0.2086 -0.1355 -0.0968
 9405PP      PP19509  12.695   5.047   2.240  0.1178 -0.0860 -0.0192
 9406PP      PP19510   5.265  11.791   1.591 -0.2581 -0.0018  0.1138
 9407PP      PP19511   2.048   4.186  10.904  0.1593  0.2838 -0.0050
 9408PP      PP19512   2.221   6.248   9.258 -0.1136 -0.3127  0.1479
 9409PP      PP19513  10.910   8.178   0.456 -0.0534  0.2159  0.1067
 9410PP      PP19514  12.159   8.825   3.870  0.0203 -0.0368  0.0493
 9411PP      PP19515  15.711   8.954   0.996 -0.1454 -0.0167  0.0566
 9412PP      PP19516  13.852   1.456   2.469  0.0983  0.2169 -0.0745
 9413PP      PP19517  13.694  15.870  10.964 -0.2036 -0.0354  0.0887
 9414PP      PP19518   0.195   2.564  10.559 -0.3455  0.0498 -0.2128
 9415PP      PP19519   0.522  10.483   3.120 -0.1980  0.0544  0.2440
 9416PP      PP19520   3.438   7.545   3.727  0.1864  0.2167 -0.2173
 9417PP      PP19521  15.371  13.555   8.684  0.0991  0.0728  0.1084
 9418PP      PP19522   7.139   7.550   9.558 -0.1333 -0.0874 -0.0584
 9419PP      PP19523   7.884  13.503   3.268 -0.0129 -0.3378  0.3709
 9420PP      PP19524   2.729   4.568  12.549  0.3303  0.2194 -0.2606
 9421PP      PP19525  14.136  10.024   2.291 -0.0194  0.0903 -0.0389
 9422PP      PP19526   4.106   2.548   1.778  0.1980 -0.1930  0.1856
 9423PP      PP19527   2.278  10.332  11.698  0.1008 -0.1018 -0.3982
 9424PP      PP19528   2.010   5.697   3.117 -0.1586  0.0952 -0.0211
 9425PP      PP19529   8.989   1.473   1.243 -0.2477 -0.0190  0.0403
 9426PP      PP19530  12.947   5.410   2.032 -0.0069 -0.1088 -0.0835
 9427PP      PP19531  14.588   8.963   2.232  0.0370  0.0761  0.2235
 9428PP      PP19532   7.530  13.519   9.890 -0.1427 -0.2170  0.0948
 9429PP      PP19533   9.358  12.253  13.040  0.2587  0.0678 -0.0554
 9430PP      PP19534   3.284  11.993   9.120 -0.1511 -0.0960 -0.0566
 9431PP      PP19535   4.781   9.883   2.466  0.1284  0.1380 -0.0391
 9432PP      PP19536   8.124   8.659   9.616  0.1310  0.2223 -0.0090
 9433PP      PP19537   9.230  14.055   2.178  0.3332  0.0661  0.2103
 9434PP      PP19538  10.460   4.206  13.005  0.1001  0.1286  0.2109
 9435PP      PP19539   5.835   7.086   1.626 -0.1576 -0.0089  0.1149
 9436PP      PP19540   0.158   5.368   2.274 -0.1560 -0.1177  0.2282
 9437PP      PP19541   1.281   2.231  13.060  0.0200  0.1411 -0.1250
 9438PP      PP19542   7.198  15.826   1.696  0.3216 -0.1906 -0.0251
 9439PP      PP19543   2.897   2.986  11.890 -0.1240 -0.3055  0.1162
 9440PP      PP19544  15.655  11.752  12.993 -0.2532 -0.3783  0.0555
 9441PP      PP19545  10.821  10.881  11.914 -0.0132  0.0108 -0.1707
 9442PP      PP19546  11.645  14.788  10.861  0.1551  0.0046 -0.3591
 9443PP      PP19547   1.887  14.702  11.295 -0.0400  0.1775  0.2520
 9444PP      PP19548   5.372   6.804   0.554  0.1177  0.0209  0.3087
 9445PP      PP19549   4.865   4.288   3.800 -0.0918  0.3201  0.0508
 9446PP      PP19550  12.894  14.779   0.150  0.0386  0.1613  0.0558
 9447PP      PP19551   9.767   0.489   1.893 -0.4167  0.0872 -0.0495
 9448PP      PP19552   7.823   5.715   1.674  0.0574 -0.2158  0.2948
 9449PP      PP19553   8.732  13.701   0.104  0.0607  0.2879  0.1008
 9450PP      PP19554  10.219   5.426  11.852  0.2348 -0.0655 -0.5217
 9451PP      PP19555   5.364   5.452   9.245 -0.2599 -0.2907  0.3500
 9452PP      PP19556  14.285  15.622   2.082  0.0147 -0.0959  0.0606
 9453PP      PP19557   5.012   7.869   1.333 -0.2330 -0.2206  0.4252
 9454PP      PP19558   1.083   2.315  10.413  0.0520  0.2334 -0.0845
 9455PP      PP19559   8.019  10.075  11.066  0.1246  0.3217  0.2413
 9456PP      PP19560   7.658  13.040  11.061  0.1299 -0.0787 -0.0050
 9457PP      PP19561   8.393  13.908   3.790  0.1658 -0.0320  0.1032
 9458PP      PP19562  14.205  11.183   0.520  0.1306 -0.3156 -0.0065
 9459PP      PP19563   6.367   8.964  13.179  0.2105  0.0115 -0.1248
 9460PP      PP19564  12.563   0.603  12.280  0.1158  0.1142  0.1932
 9461PP      PP19565  13.061   3.324  10.099  0.2892  0.1068  0.1011
 9462PP      PP19566   1.553   6.891   5.480 -0.0086 -0.0253  0.1421
 9463PP      PP19567  10.811   9.290   8.714  0.0247 -0.0379  0.2171
 9464PP      PP19568   5.769  10.092  10.618  0.0702  0.4497  0.3158
 9465PP      PP19569   3.082  11.380   9.764 -0.1138 -0.1637  0.1822
 9466PP      PP19570  14.335   1.280   3.249 -0.4518 -0.0347  0.0065
 9467PP      PP19571  14.687  15.725   9.826  0.0373  0.0301  0.2730
 9468PP      PP19572  12.966   0.819  13.368 -0.6987 -0.0397 -0.2385
 9469PP      PP19573  15.030  10.240  10.699  0.1583  0.0958  0.0617
 9470PP      PP19574   7.178   1.817   2.938 -0.0093 -0.0530 -0.3939
 9471PP      PP19575   6.627   9.197   0.231  0.0711  0.1697  0.0690
 9472PP      PP19576  11.239  12.613   0.851  0.3005  0.1745 -0.1002
 9473PP      PP19577   7.172   5.022  12.809  0.1528  0.0155 -0.1397
 9474PP      PP19578   6.069   1.268   0.368 -0.0093 -0.0285 -0.1032
 9475PP      PP19579   8.706  13.135  10.151 -0.1599  0.1316 -0.1845
 9476PP      PP19580   0.529  13.818   8.397 -0.3678 -0.1121 -0.1966
 9477PP      PP19581   4.422   3.811   0.209  0.0037  0.0682 -0.1863
 9478PP      PP19582  11.418  13.717  12.619 -0.3720 -0.0529  0.1526
 9479PP      PP19583   1.651   0.704   3.376 -0.1159  0.0157  0.1689
 9480PP      PP19584  14.061   2.903  10.203  0.0701  0.0520 -0.0051
 9481PP      PP19585   1.188   0.864  12.041 -0.5032  0.0029  0.1081
 9482PP      PP19586   3.698   2.958   9.837 -0.0551  0.0769 -0.1253
 9483PP      PP19587   5.961   0.407   4.467  0.0240 -0.2154 -0.0532
 9484PP      PP19588   2.300   0.120   9.217  0.1779  0.1764  0.0586
 9485PP      PP19589   2.864  13.165  13.035  0.0247  0.0898  0.2910
 9486PP      PP19590   3.910   1.564   1.291  0.2260  0.2474 -0.3686
 9487PP      PP19591  10.722  12.193   1.275 -0.1253  0.0321 -0.0759
 9488PP      PP19592  15.251  12.401   3.940  0.1296 -0.1298 -0.3501
 9489PP      PP19593  12.944   6.816   1.256 -0.0576  0.0358 -0.0588
 9490PP      PP19594   8.611  14.469  12.456  0.2435 -0.0104  0.1586
 9491PP      PP19595   1.202   2.226   9.745  0.1142 -0.1532  0.1412
 9492PP      PP19596  11.058  13.196   2.621 -0.1159 -0.0044 -0.1370
 9493PP      PP19597   6.519  12.174   1.566  0.1806 -0.0992 -0.1514
 9494PP      PP19598   7.521  14.189   4.701  0.0965 -0.0737 -0.1375
 9495PP      PP19599   8.976   2.721   1.388  0.4481 -0.1857  0.2427
 9496PP      PP19600   5.428  12.576  10.878  0.1626  0.0604 -0.0218
 9497PP      PP19601  11.740   7.118   1.586 -0.0499 -0.3513  0.1810
 9498PP      PP19602  12.385   1.505  11.314  0.1270 -0.0364  0.0735
 9499PP      PP19603   4.196   6.722   0.700 -0.1279 -0.0043 -0.2376
 9500PP      PP19604   2.926   0.157  12.963  0.4329 -0.1809  0.1509
 9501PP      PP19605   0.556   1.283   0.359 -0.2115 -0.0821  0.1685
 9502PP      PP19606   1.689   8.008  10.366  0.0452  0.0449  0.0211
 9503PP      PP19607  10.830   2.893  11.367 -0.1452  0.2126 -0.1452
 9504PP      PP19608  15.895  10.343   2.200  0.0891 -0.1900 -0.1824
 9505PP      PP19609   5.481   1.532   2.523 -0.0398 -0.1524  0.0601
 9506PP      PP19610  15.433  13.000  12.838  0.0998  0.0498 -0.0307
 9507PP      PP19611   4.946   0.124   3.145 -0.4074 -0.1872  0.0761
 9508PP      PP19612   0.922   6.835  13.070  0.2407  0.0519  0.0178
 9509PP      PP19613   2.284  12.669   1.648  0.1133 -0.1320  0.1266
 9510PP      PP19614   8.978  14.996  10.836  0.0186 -0.3521  0.1579
 9511PP      PP19615  10.038   7.373  12.141  0.0499  0.1529 -0.1466
 9512PP      PP19616  11.306   5.215   8.831  0.1263 -0.0472 -0.0645
 9513PP      PP19617  10.108   9.774   8.790 -0.0838  0.1529 -0.2238
 9514PP      PP19618  10.787   4.095   0.881 -0.0162  0.2017 -0.0949
 9515PP      PP19619  15.686   2.585   2.112  0.0718  0.0010  0.1897
 9516PP      PP19620  11.604   4.301   2.946 -0.2128  0.0671 -0.2691
 9517PP      PP19621  15.255  14.869   9.613 -0.1575  0.1687  0.0133
 9518PP      PP19622   9.375   9.003   1.070  0.0909 -0.0810  0.0880
 9519PP      PP19623   4.839   7.763   0.885  0.1043 -0.2132 -0.1369
 9520PP      PP19624   3.275  14.764   1.429  0.2277  0.2343 -0.0784
 9521PP      PP19625   0.193  13.528  12.264  0.1038 -0.1075 -0.2652
 9522PP      PP19626  10.801   9.261   0.550  0.4943  0.0813 -0.0636
 9523PP      PP19627   5.786   1.097   1.649  0.2288  0.1029  0.2841
 9524PP      PP19628  12.698  15.347  12.368 -0.0871 -0.0125 -0.1194
 9525PP      PP19629   7.659   5.164   1.782  0.2178 -0.0364  0.1857
 9526PP      PP19630   4.376  13.924  12.982  0.2625  0.1756  0.3681
 9527PP      PP19631  11.382   8.478   9.375  0.2152 -0.2509 -0.0148
 9528PP      PP19632  11.015  12.007   3.433 -0.0245  0.1064  0.0352
 9529PP      PP19633   8.136   8.751  13.081 -0.3238  0.1544 -0.0598
 9530PP      PP19634  15.286   5.640   1.794 -0.0307 -0.0661  0.0217
 9531PP      PP19635  12.419  11.771  13.343 -0.0759  0.1391 -0.1096
 9532PP      PP19636   4.415  12.317  12.928  0.1166 -0.0856  0.2775
 9533PP      PP19637   2.962  12.124  10.939 -0.2073  0.1184 -0.0576
 9534PP      PP19638  12.019  11.628   1.422  0.0016  0.1756 -0.2683
 9535PP      PP19639  12.913   6.087   2.100  0.0332 -0.1913 -0.0885
 9536PP      PP19640  14.350  13.575   0.054  0.1712 -0.1819  0.3018
 9537PP      PP19641  10.729  15.072  13.330  0.0804  0.2019  0.0063
 9538PP      PP19642   5.072  12.976  10.398 -0.2628 -0.0974 -0.1733
 9539PP      PP19643   3.821   0.011   4.291  0.0769 -0.2779 -0.1518
 9540PP      PP19644  11.893   7.512  10.429  0.2504  0.1204  0.0326
 9541PP      PP19645   0.483   9.072   2.732 -0.1015 -0.0207 -0.1741
 9542PP      PP19646   6.186  14.347   1.246  0.1052 -0.1402  0.3297
 9543PP      PP19647   6.555   3.194   2.657 -0.0776 -0.2080  0.0571
 9544PP      PP19648  12.890  11.671   8.763  0.0246  0.2430  0.1511
 9545PP      PP19649   7.634   3.724  11.980  0.1511  0.0040  0.2062
 9546PP      PP19650   7.418  12.579   1.296  0.2053  0.4961 -0.1377
 9547PP      PP19651  14.475  12.428  13.018  0.3768 -0.1495 -0.1689
 9548PP      PP19652  14.323  11.991  10.229 -0.1364 -0.5535 -0.0071
 9549PP      PP19653   8.000   8.102   9.976 -0.1526 -0.1216  0.0935
 9550PP      PP19654  12.696   4.831   1.786  0.0774  0.1491  0.1783
 9551PP      PP19655  15.700  12.398   9.123  0.1994  0.2486  0.1171
 9552PP      PP19656   6.970  11.110  11.620 -0.0011 -0.1545  0.1143
 9553PP      PP19657  15.827   4.962   2.537 -0.1649 -0.2093 -0.2624
 9554PP      PP19658   5.488   2.918  10.273 -0.0324 -0.1276  0.1414
 9555PP      PP19659   4.687   6.508   3.709 -0.1725 -0.0820  0.0776
 9556PP      PP19660  11.003  11.638   1.616 -0.1611 -0.0212 -0.2283
 9557PP      PP19661   4.440  11.219  13.399 -0.0655  0.0645  0.2794
 9558PP      PP19662  12.839   5.681  11.043 -0.1013  0.0053 -0.1116
 9559PP      PP19663   1.013   6.679   0.993  0.0789  0.1338  0.0123
 9560PP      PP19664  15.042   6.628   4.661  0.0834 -0.0901  0.1911
 9561PP      PP19665   9.185   3.430   1.190 -0.0720  0.0007  0.0061
 9562PP      PP19666   4.491   5.483  11.800 -0.1054 -0.1707 -0.1427
 9563PP      PP19667   2.590   1.144  12.379 -0.1017 -0.3266 -0.2837
 9564PP      PP19668   5.016   4.250   9.858  0.0388  0.1765  0.1467
 9565PP      PP19669   7.571  15.230   2.290 -0.0181  0.1532  0.0175
 9566PP      PP19670   5.736   2.773   2.581 -0.1333  0.1639 -0.0581
 9567PP      PP19671   6.023   2.878  11.017  0.1425  0.1651  0.0214
 9568PP      PP19672   7.140   9.447   1.010  0.1508  0.0420  0.1375
 9569PP      PP19673  15.314   4.896   2.313 -0.1479  0.1166 -0.0856
 9570PP      PP19674   7.626   6.637  12.470  0.0556  0.1593 -0.0766
 9571PP      PP19675   9.197  11.749  10.234 -0.0439 -0.1640 -0.0583
 9572PP      PP19676   6.205   2.018   2.200  0.1644 -0.1495  0.2899
 9573PP      PP19677  13.654   3.106  11.975  0.1211 -0.4061 -0.0529
 9574PP      PP19678  11.553  14.761   2.018  0.0355  0.0359  0.3331
 9575PP      PP19679   6.614   9.491   1.704 -0.3464  0.0294 -0.0147
 9576PP      PP19680   3.915   5.346  13.384 -0.2612 -0.1612 -0.2755
 9577PP      PP19681   4.411   0.940   9.414 -0.2517  0.2277  0.2469
 9578PP      PP19682   7.254   3.115  12.160 -0.0112 -0.2867 -0.4595
 9579PP      PP19683   2.456  12.752   0.840 -0.3639 -0.0936 -0.2597
 9580PP      PP19684  12.788   3.863   8.891  0.3245  0.0122 -0.2487
 9581PP      PP19685  11.088  12.165  12.903 -0.3214  0.0032  0.0532
 9582PP      PP19686  11.803   9.918   1.226  0.1242  0.0248 -0.3923
 9583PP      PP19687   4.010   7.308   0.024 -0.2250  0.1393  0.1597
 9584PP      PP19688   1.938   9.664  11.733 -0.1200  0.2406 -0.3284
 9585PP      PP19689   8.136   8.586  10.702  0.1154 -0.0124 -0.2831
 9586PP      PP19690   6.880   9.353  10.823 -0.0899 -0.2334  0.0234
 9587PP      PP19691   0.075  14.005   2.295 -0.2926  0.0027  0.0048
 9588PP      PP19692   8.888  11.995   9.235  0.1557 -0.1564  0.0373
 9589PP      PP19693   8.518  10.892   3.828  0.0512 -0.0751 -0.1004
 9590PP      PP19694   4.467  11.450   0.990 -0.2525  0.1973 -0.1397
 9591PP      PP19695   2.914   5.756  12.814  0.2657 -0.2071 -0.2438
 9592PP      PP19696   1.812   2.718   4.210  0.1370 -0.1253 -0.2232
 9593PP      PP19697   0.057  13.819  13.066 -0.0790 -0.0120 -0.2662
 9594PP      PP19698   3.546   1.279   0.191  0.0965  0.0203  0.3372
 9595PP      PP19699   0.095  10.086   0.928 -0.2471 -0.0257  0.1275
 9596PP      PP19700   9.777   4.103   2.284  0.0715  0.4400 -0.3515
 9597PP      PP19701   3.851   9.376  13.353 -0.1559 -0.1021  0.0847
 9598PP      PP19702   0.898  10.329   1.936  0.2473 -0.0604 -0.1987
 9599PP      PP19703   3.368  14.431   0.938  0.1821  0.1414 -0.0164
 9600PP      PP19704  15.620   3.928   9.565  0.2088 -0.1518  0.1871
 9601PP      PP19705  11.575  15.603  13.108 -0.1789 -0.1359  0.2791
 9602PP      PP19706  13.967  11.027  10.662  0.1894  0.1227  0.1553
 9603PP      PP19707  12.432   6.443   1.363 -0.1494 -0.0016  0.1267
 9604PP      PP19708   2.920   7.907  11.675  0.2388 -0.2914 -0.1528
 9605PP      PP19709   4.969  10.412   4.425 -0.2201 -0.1349 -0.2016
 9606PP      PP19710   3.695   9.632   9.830  0.1322  0.1882  0.0905
 9607PP      PP19711  13.998   1.701  11.366 -0.2172 -0.1435 -0.1720
 9608PP      PP19712   6.688   1.957   2.387 -0.0524  0.1677 -0.1610
 9609PP      PP19713  15.346   1.300   9.755 -0.0915  0.0426 -0.0095
 9610PP      PP19714   2.302   8.987   0.200  0.1113 -0.2193  0.2179
 9611PP      PP19715   2.839  13.080  12.451  0.0965  0.0272  0.1045
 9612PP      PP19716   5.872  13.410   3.134 -0.1028  0.1644 -0.2723
 9613PP      PP19717   7.945   0.927  11.949 -0.0335 -0.1928  0.0362
 9614PP      PP19718  10.980  12.707  12.337  0.3215  0.0919 -0.0185
 9615PP      PP19719   4.525  12.078  10.269 -0.0686  0.0248  0.1517
 9616PP      PP19720   2.115  10.892   9.436 -0.3410  0.3378 -0.2261
 9617PP      PP19721  12.601  10.888  10.328  0.1359 -0.2132 -0.1083
 9618PP      PP19722  11.304  11.504   9.028 -0.0168 -0.2525  0.2271
 9619PP      PP19723   7.512   4.408   3.643  0.0313  0.2013  0.2178
 9620PP      PP19724   2.535  12.885   3.703 -0.0243 -0.1612 -0.2736
 9621PP      PP19725  10.445   1.440  11.461  0.1032 -0.1746  0.0916
 9622PP      PP19726  13.998   6.226   8.784  0.0456  0.0467  0.1499
 9623PP      PP19727  12.196  12.970   1.980  0.0276  0.1885  0.3578
 9624PP      PP19728  12.451  10.014   3.680  0.1364 -0.0006 -0.0537
 9625PP      PP19729   4.204   3.995  12.356  0.0368 -0.1023  0.1498
 9626PP      PP19730   8.241   1.961   2.032 -0.0808 -0.0639  0.1877
 9627PP      PP19731  10.136   0.250   1.464  0.0483 -0.0504 -0.0377
 9628PP      PP19732   1.152   3.148   2.127 -0.1737  0.3058 -0.2799
 9629PP      PP19733   6.314   5.115  12.507  0.1215 -0.0885  0.0266
 9630PP      PP19734   5.419   1.118   8.495 -0.0422  0.3048  0.1198
 9631PP      PP19735  14.726   7.227   3.033 -0.1663 -0.1039  0.0342
 9632PP      PP19736   4.146  11.316  11.758  0.3096 -0.2254 -0.0853
 9633PP      PP19737   3.466   5.865  12.961 -0.3514 -0.0174  0.0770
 9634PP      PP19738   5.002  15.329   0.732  0.2542  0.1664  0.1292
 9635PP      PP19739   2.017  15.824   2.888  0.0351  0.1523  0.1984
 9636PP      PP19740  11.781  13.806  12.979 -0.1729  0.2121 -0.3515
 9637PP      PP19741   3.725  12.535  12.895  0.2679 -0.1767  0.2880
 9638PP      PP19742   2.169   2.292   9.581 -0.0915  0.0455 -0.1493
 9639PP      PP19743   5.556  12.776  10.475 -0.3549  0.2629  0.3230
 9640PP      PP19744   8.615   7.450   1.717 -0.0855 -0.0921  0.2766
 9641PP      PP19745   9.939  11.274  13.065 -0.1224 -0.0529  0.2201
 9642PP      PP19746  14.681   6.099  12.544 -0.2148  0.1350 -0.1208
 9643PP      PP19747   7.876   8.307   4.327 -0.2443 -0.2029 -0.0877
 9644PP      PP19748   6.349   4.854  11.512 -0.2942 -0.2605  0.1865
 9645PP      PP19749   6.776   5.447   1.389  0.2845  0.2612 -0.0557
 9646PP      PP19750   6.340  10.183  12.722 -0.2465 -0.0890  0.1232
 9647PP      PP19751  11.639   1.636  10.335  0.3689  0.0379  0.1949
 9648PP      PP19752   7.339   2.353   9.086 -0.1526  0.1120  0.3214
 9649PP      PP19753  11.394   2.823  12.360 -0.1161 -0.3248  0.0100
 9650PP      PP19754  10.432  12.620   0.353 -0.1239 -0.1185  0.2423
 9651PP      PP19755  12.969   5.257  12.266  0.2987 -0.0963  0.2013
 9652PP      PP19756   0.531  11.947  11.839  0.2121 -0.3467  0.4895
 9653PP      PP19757  12.199  14.366   8.802 -0.0222 -0.0812  0.0085
 9654PP      PP19758  13.848  12.263  11.840 -0.1573  0.3230 -0.0346
 9655PP      PP19759  11.276   5.391  11.617 -0.4774 -0.1458 -0.4195
 9656PP      PP19760   2.795   5.431  10.543 -0.1128  0.3109  0.1767
 9657PP      PP19761  13.845  14.278   0.871 -0.1470 -0.0874  0.0596
 9658PP      PP19762   5.876   3.006   1.753 -0.2468  0.0623  0.1183
 9659PP      PP19763   6.962   3.319   2.132  0.2100 -0.0795  0.1642
 9660PP      PP19764  10.230  10.265   0.637  0.5961  0.1534  0.1946
 9661PP      PP19765   3.685   5.661  12.106 -0.1681 -0.1129 -0.1219
 9662PP      PP19766  10.102  15.566   9.166 -0.1434 -0.3848 -0.0045
 9663PP      PP19767  12.696  12.052   8.981  0.1876 -0.4594 -0.0506
 9664PP      PP19768   3.198   9.326  13.350  0.1102 -0.0839  0.1188
 9665PP      PP19769  14.593  11.361   0.911  0.2855  0.0956 -0.0976
 9666PP      PP19770   9.900   6.072   0.569 -0.2596 -0.0100  0.1921
 9667PP      PP19771   9.480  11.929   8.241  0.0668  0.2176  0.3780
 9668PP      PP19772   5.026   1.723   3.291  0.1594  0.3774 -0.0391
 9669PP      PP19773   5.987   0.663   2.671 -0.1292  0.1074 -0.3138
 9670PP      PP19774  14.816   9.032   3.792 -0.0055 -0.0438  0.3901
 9671PP      PP19775   8.606   9.294  12.105  0.0782  0.2852 -0.4211
 9672PP      PP19776   9.091  14.437   1.801 -0.0948  0.0165  0.5896
 9673PP      PP19777  14.682   5.125   3.441  0.3912 -0.1815 -0.1532
 9674PP      PP19778   6.877   6.625   2.846  0.2054  0.0300  0.0103
 9675PP      PP19779  15.326   8.205   1.419  0.1866  0.0604  0.1010
 9676PP      PP19780   5.796  14.172  11.268 -0.0559 -0.0769 -0.0369
 9677PP      PP19781   6.405   6.086  10.285 -0.0678  0.2544  0.1092
 9678PP      PP19782   0.602   4.988  11.167  0.3024 -0.0949 -0.1290
 9679PP      PP19783   4.932   2.072   0.383  0.3722  0.0019  0.1124
 9680PP      PP19784  10.694  13.693   9.673  0.2278  0.2968  0.0078
 9681PP      PP19785   2.790  11.364   4.232 -0.1016  0.4082  0.0034
 9682PP      PP19786   7.209   1.478  11.423 -0.1344  0.2452 -0.1689
 9683PP      PP19787   2.489   3.673  12.509  0.1405  0.1049  0.1375
 9684PP      PP19788   2.844   5.875  11.738 -0.1329 -0.0088  0.3490
 9685PP      PP19789   2.584   0.492   0.682 -0.4373  0.0048 -0.1543
 9686PP      PP19790   3.646   4.367  12.559 -0.0309  0.1150 -0.2226
 9687PP      PP19791   8.967   4.049  12.296 -0.1173 -0.2458 -0.2101
 9688PP      PP19792   6.918   1.030   1.980  0.0084 -0.0613  0.0233
 9689PP      PP19793   1.744   3.079   2.762 -0.2070 -0.0066  0.0489
 9690PP      PP19794  14.054   7.282  10.646 -0.1651  0.2085  0.0087
 9691PP      PP19795  15.397   5.556  10.423 -0.0516 -0.0311 -0.1503
 9692PP      PP19796   6.475  15.631  10.851  0.1664 -0.0243  0.0725
 9693PP      PP19797   9.201  10.499  12.371 -0.1902 -0.0456 -0.0365
 9694PP      PP19798  10.768  14.151   9.805  0.2004 -0.0914  0.1935
 9695PP      PP19799   9.053   9.355   9.051 -0.3080  0.1022 -0.0482
 9696PP      PP19800  15.091   4.960   0.425 -0.1749 -0.0476  0.0317
 9697PP      PP19801   2.570   7.713  13.422 -0.2022 -0.2230 -0.2677
 9698PP      PP19802   0.621   2.284  11.422 -0.0593 -0.1414  0.2080
 9699PP      PP19803   6.052   2.714  13.111  0.1656  0.7112  0.4253
 9700PP      PP19804   9.292   1.330   9.375  0.0292 -0.2724 -0.2759
 9701PP      PP19805   2.882   0.915  11.931  0.1538 -0.2120 -0.0951
 9702PP      PP19806  13.111   0.945   0.361  0.0730 -0.1628 -0.0638
 9703PP      PP19807   2.056  10.668   0.576  0.0964 -0.1154 -0.1106
 9704PP      PP19808   3.376   1.005  11.513 -0.0762 -0.0273 -0.0750
 9705PP      PP19809  10.103   3.046   1.326 -0.1696  0.0015 -0.0489
 9706PP      PP19810  14.464  11.306  10.785 -0.1751  0.0015 -0.0630
 9707PP      PP19811   7.773   1.676  13.291 -0.0890  0.0459  0.1351
 9708PP      PP19812   5.856   4.885  12.821  0.1388  0.1954 -0.2914
 9709PP      PP19813   7.048  14.899  10.056  0.0144 -0.0724 -0.0627
 9710PP      PP19814   9.044   0.030   2.887  0.1442  0.1361 -0.0639
 9711PP      PP19815   8.706   1.774  12.725  0.0720 -0.1126 -0.0104
 9712PP      PP19816  15.890   2.603  11.314  0.2334 -0.1720  0.0555
 9713PP      PP19817  14.693   8.917   4.459  0.2013  0.0409 -0.1505
 9714PP      PP19818   7.235   7.593   2.198  0.0038  0.0823 -0.0112
 9715PP      PP19819   6.662  14.631   4.437 -0.1628  0.0184  0.2801
 9716PP      PP19820   4.185   9.835   9.921 -0.0986  0.0589 -0.0200
 9717PP      PP19821   1.963   0.586   8.846  0.0047 -0.0625  0.1952
 9718PP      PP19822  14.514  11.054   4.258 -0.2569  0.3369 -0.0165
 9719PP      PP19823  11.203  11.955   9.660  0.4311  0.1214  0.1008
 9720PP      PP19824   3.078   9.457   1.566 -0.1139  0.2313 -0.0707
 9721PP      PP19825   7.017  12.800  13.043 -0.1953 -0.0380  0.2248
 9722PP      PP19826  12.621   1.323   1.221 -0.1045  0.2119 -0.0729
 9723PP      PP19827  12.619   2.048   4.431  0.1077  0.1350  0.3996
 9724PP      PP19828   0.064  13.380  11.767 -0.2616 -0.2255 -0.0224
 9725PP      PP19829   6.213   4.628  12.449  0.2102  0.1773 -0.0942
 9726PP      PP19830  11.555  14.585   0.600 -0.1472 -0.0403  0.2065
 9727PP      PP19831  14.011  13.196   9.774 -0.2128  0.0059  0.1288
 9728PP      PP19832   9.371  13.137  13.054  0.3343 -0.0789  0.1736
 9729PP      PP19833  14.355  10.457  13.092 -0.1862  0.4043  0.1489
 9730PP      PP19834   9.766  11.556   3.390  0.0026  0.1401 -0.1228
 9731PP      PP19835   9.891  14.667   1.423  0.1541 -0.0986  0.1598
 9732PP      PP19836   1.300   2.544  11.765 -0.1620  0.0499  0.2390
 9733PP      PP19837  10.053   2.919   9.243  0.2257 -0.3690  0.1124
 9734PP      PP19838   7.943  11.721  13.068 -0.2113 -0.1100  0.1380
 9735PP      PP19839   5.340   7.634   0.823  0.1579  0.0335  0.1789
 9736PP      PP19840   1.562   2.431   2.901 -0.3229  0.1394  0.0098
 9737PP      PP19841  15.477  14.892  12.380  0.0983 -0.2155 -0.2374
 9738PP      PP19842   0.693   1.586   3.449 -0.0063 -0.0214 -0.1746
 9739PP      PP19843   9.262   8.786   3.816  0.0578 -0.2882  0.2146
 9740PP      PP19844  10.235  13.297   1.297  0.0020 -0.1731 -0.1706
 9741PP      PP19845   9.904  14.697  10.493 -0.1558  0.1546 -0.1656
 9742PP      PP19846   4.502  11.110   2.355  0.1194 -0.1800 -0.3258
 9743PP      PP19847   4.735   2.476   3.047  0.1474  0.2087  0.1292
 9744PP      PP19848  13.291   4.592   0.612  0.1308  0.2591 -0.0849
 9745PP      PP19849  15.228  15.182   1.089  0.2981  0.0730  0.1044
 9746PP      PP19850   8.216   1.263   3.242  0.0429  0.0350  0.4202
 9747PP      PP19851   2.721  12.661   1.856 -0.2032 -0.0882  0.2673
 9748PP      PP19852  14.872   0.494  13.320 -0.2576  0.0991 -0.0463
 9749PP      PP19853  14.247   9.447   2.322 -0.0816 -0.1699 -0.0312
 9750PP      PP19854  14.320   5.829  11.369  0.0961  0.1986 -0.0661
 9751PP      PP19855  14.765   2.140  11.801  0.2425 -0.3008 -0.0451
 9752PP      PP19856   8.554   8.269   2.250 -0.0900 -0.2677 -0.0570
 9753PP      PP19857   2.846   2.389   9.140 -0.0405 -0.2897  0.1961
 9754PP      PP19858   6.062   7.535  11.389  0.1680  0.1712  0.0122
 9755PP      PP19859   4.570   9.923  11.903 -0.0384 -0.1037 -0.0288
 9756PP      PP19860   3.786  14.980   9.899  0.0293  0.0234  0.2433
 9757PP      PP19861   3.983  10.755   1.103  0.1918  0.1206  0.1327
 9758PP      PP19862   6.151   0.911  11.277  0.1560  0.1579  0.0268
 9759PP      PP19863   4.314  13.611   9.078  0.1581  0.2192 -0.2925
 9760PP      PP19864   4.336  14.183  10.237  0.0727  0.0170 -0.0536
 9761PP      PP19865   1.321  12.595   3.046 -0.0423 -0.1737  0.0511
 9762PP      PP19866   7.576   3.311   1.974  0.0990 -0.0829 -0.1790
 9763PP      PP19867  12.646  15.421  11.738 -0.1955 -0.1626  0.0834
 9764PP      PP19868   3.128  11.221  10.959 -0.3456 -0.2294  0.0750
 9765PP      PP19869   5.200  14.748  13.090  0.1739 -0.0549  0.1995
 9766PP      PP19870  10.851   1.432   1.204  0.4355 -0.1277 -0.3066
 9767PP      PP19871   5.762  15.408   9.541  0.0545  0.0105  0.3298
 9768PP      PP19872   1.013   9.192   4.406 -0.0816 -0.1311 -0.0845
 9769PP      PP19873   7.018  11.155   3.111  0.0382  0.4077  0.1857
 9770PP      PP19874  11.620  14.647   9.683 -0.0123  0.0237 -0.2022
 9771PP      PP19875  14.227   9.647  12.385 -0.0730 -0.0988  0.1664
 9772PP      PP19876   9.763   8.546   4.015 -0.0152 -0.2268 -0.0537
 9773PP      PP19877   2.418  11.976   4.607  0.0183 -0.3154  0.0781
 9774PP      PP19878   3.301   0.767   1.328 -0.1828 -0.0265  0.0151
 9775PP      PP19879  15.133   0.400   9.181  0.4220  0.0730  0.1695
 9776PP      PP19880   6.732  10.253  10.581 -0.1161  0.1039 -0.2854
 9777PP      PP19881   5.198  13.610   8.800 -0.1102 -0.0205  0.1682
 9778PP      PP19882   0.102  12.467   0.840 -0.2246  0.1452  0.3507
 9779PP      PP19883  14.819   6.551   3.749  0.3299  0.1865 -0.2210
 9780PP      PP19884  14.558  15.838  13.316 -0.2494  0.1705  0.0912
 9781PP      PP19885   8.417   3.959   1.899  0.1690 -0.0185 -0.2466
 9782PP      PP19886   3.826  14.048   4.171  0.0624  0.1961 -0.1392
 9783PP      PP19887   8.899  14.507   4.535  0.0934  0.2180  0.3454
 9784PP      PP19888   4.131   7.403  10.322  0.0618 -0.3297  0.1421
 9785PP      PP19889   6.198  10.936   9.151 -0.2061 -0.0839 -0.3243
 9786PP      PP19890   5.113   4.852   3.950  0.0130  0.0493  0.0586
 9787PP      PP19891   7.543   1.826  11.563 -0.0371 -0.0861  0.0838
 9788PP      PP19892   7.211   2.997   9.027  0.2458 -0.1470 -0.0573
 9789PP      PP19893  14.398  10.787  12.738 -0.2806 -0.1416  0.3259
 9790PP      PP19894   1.241  14.319   1.159  0.2500 -0.0209 -0.3019
 9791PP      PP19895  11.848  10.800   2.936  0.0332  0.2361 -0.0446
 9792PP      PP19896   0.263   5.232  12.821 -0.2516  0.0297  0.2206
 9793PP      PP19897   3.326  15.624   0.382  0.0393  0.1481 -0.2847
 9794PP      PP19898  14.832   4.437   3.675 -0.3789 -0.0211  0.0119
 9795PP      PP19899   7.896   6.805   4.546  0.1277 -0.4427  0.0217
 9796PP      PP19900   1.207   0.902   1.625  0.0113  0.2114 -0.3380
 9797PP      PP19901   3.831  14.758  12.033 -0.1365  0.0199 -0.2236
 9798PP      PP19902  14.570  14.467   8.998  0.2276  0.1374 -0.3552
 9799PP      PP19903   8.730   6.578   1.725 -0.0128  0.2444  0.0654
 9800PP      PP19904   7.257  13.114  10.741  0.6790  0.4291 -0.0885
 9801PP      PP19905  12.283  14.748   1.448 -0.1151  0.0548  0.1169
 9802PP      PP19906  10.177   9.256  10.229 -0.0975 -0.0045 -0.0800
 9803PP      PP19907  13.808  15.358  12.995  0.3073  0.3413  0.0133
 9804PP      PP19908   5.815  13.921  11.929  0.0975  0.2075  0.1775
 9805PP      PP19909   2.164  10.986  13.049 -0.4145 -0.1290 -0.3198
 9806PP      PP19910  10.784   4.102  13.399 -0.0397 -0.0225 -0.0885
 9807PP      PP19911   9.198   3.888   3.499 -0.0989  0.0549  0.4189
 9808PP      PP19912   8.779  10.052   4.379 -0.2829  0.2952 -0.2270
 9809PP      PP19913  11.399   6.141   4.812 -0.0188  0.2591  0.1718
 9810PP      PP19914   3.821  12.871   0.358  0.1875  0.2997 -0.2095
 9811PP      PP19915   6.575   2.814   9.603  0.1556 -0.1381 -0.2030
 9812PP      PP19916   2.083  15.306   2.754  0.0724  0.0465 -0.0090
 9813PP      PP19917   8.374   5.812  10.132  0.0859 -0.0268  0.1585
 9814PP      PP19918   2.780   1.854  10.308  0.2054 -0.0408  0.0563
 9815PP      PP19919   5.734   9.571   0.016 -0.1740  0.0947 -0.0835
 9816PP      PP19920   5.248  12.359  13.270  0.0798  0.1828  0.1346
 9817PP      PP19921   4.342  10.494   3.161 -0.1442  0.1047 -0.2521
 9818PP      PP19922  11.976   6.505   9.666 -0.2587  0.2665 -0.0056
 9819PP      PP19923   4.177   9.823   4.290  0.0235  0.0124 -0.1747
 9820PP      PP19924   0.832  14.836   0.503  0.1543 -0.0586  0.0230
 9821PP      PP19925   2.926   0.247   2.829  0.0214  0.2198 -0.0850
 9822PP      PP19926   4.123   9.017   4.666 -0.5128  0.2099 -0.1145
 9823PP      PP19927   3.703   8.976   4.402  0.1044  0.1694  0.0452
 9824PP      PP19928  12.251   0.446   1.758  0.1101  0.2151 -0.0152
 9825PP      PP19929  10.331   7.647   3.905 -0.2161 -0.0497  0.3024
 9826PP      PP19930  15.527  15.846  13.180 -0.0972 -0.0135 -0.0943
 9827PP      PP19931  10.172  15.384   0.081  0.1503 -0.0617 -0.0238
 9828PP      PP19932  13.952   4.124  11.600 -0.0773  0.2953 -0.0878
 9829PP      PP19933  10.103   2.892  12.685  0.2509  0.1749  0.0245
 9830PP      PP19934   6.996   4.077   3.768 -0.1088  0.0120 -0.1938
 9831PP      PP19935  14.197   7.502   2.000 -0.0536 -0.3381 -0.1459
 9832PP      PP19936   0.556   3.927   2.491 -0.1058  0.2127  0.3411
 9833PP      PP19937   5.219  12.640   0.317  0.1162  0.1835 -0.3094
 9834PP      PP19938  11.919   0.232   2.238  0.0784  0.3570  0.0501
 9835PP      PP19939   2.876   8.119  12.113 -0.3898  0.0451  0.1517
 9836PP      PP19940   0.262  13.506   2.309 -0.3817  0.1051  0.1718
 9837PP      PP19941   9.646   1.199  11.236 -0.4660 -0.1690 -0.2111
 9838PP      PP19942  12.204   5.652  13.048  0.1526 -0.3189 -0.0156
 9839PP      PP19943  10.764  13.481  13.154 -0.1004 -0.1628  0.1206
 9840PP      PP19944   0.444   4.445   0.423 -0.2692  0.0667 -0.3726
 9841PP      PP19945  13.920   5.552   4.603  0.3780  0.3709 -0.0075
 9842PP      PP19946   1.500   0.646   2.530  0.1481  0.3329 -0.3351
 9843PP      PP19947  10.358  10.251   9.595 -0.1125  0.1223 -0.2197
 9844PP      PP19948  10.467  10.894  11.514 -0.0381 -0.0554  0.0698
 9845PP      PP19949  13.448  13.764   8.918  0.2258  0.0541  0.0981
 9846PP      PP19950   4.516  11.835   0.591  0.1409  0.2729 -0.1899
 9847PP      PP19951  14.855   9.724  11.895  0.2305 -0.0057 -0.0673
 9848PP      PP19952   5.383   4.247   2.550  0.0180 -0.1161 -0.1454
 9849PP      PP19953  12.567   0.388  13.313  0.1276 -0.2884  0.1296
 9850PP      PP19954  10.397   2.825   0.208  0.1103  0.0996  0.0339
 9851PP      PP19955  11.536  12.108   9.195  0.0089 -0.1401 -0.0792
 9852PP      PP19956   9.220  12.213   8.527  0.1852  0.0172 -0.4235
 9853PP      PP19957   6.947   0.968  11.710  0.1073  0.2178 -0.3211
 9854PP      PP19958   4.162   0.736  10.829  0.0192  0.0654  0.0336
 9855PP      PP19959   8.939  15.892  10.989  0.0913  0.0554 -0.0714
 9856PP      PP19960   9.829   6.107  13.423 -0.1842 -0.2270 -0.0968
 9857PP      PP19961   0.948   5.834   3.237 -0.0861  0.0546  0.1805
 9858PP      PP19962   5.628   8.237   0.579 -0.2958  0.0254 -0.2420
 9859PP      PP19963  10.720   7.881  11.993 -0.0914 -0.1384 -0.0276
 9860PP      PP19964   9.171  13.789   9.938  0.0866  0.1431  0.1065
 9861PP      PP19965   6.836   4.677   9.464  0.2796 -0.2117 -0.1886
 9862PP      PP19966   8.004   3.771   8.282 -0.0627  0.0424 -0.2755
 9863PP      PP19967  12.558  12.523   1.886 -0.2043  0.1164 -0.0926
 9864PP      PP19968  14.751   1.306  12.156 -0.1018  0.0225  0.4077
 9865PP      PP19969  15.377   3.837   3.669  0.1160 -0.1551 -0.1021
 9866PP      PP19970   8.481  13.809  11.273 -0.0012  0.3001 -0.2908
 9867PP      PP19971   5.035   6.211   3.356 -0.4420 -0.0992 -0.0188
 9868PP      PP19972   2.839  15.257   3.803 -0.2181  0.2497  0.1715
 9869PP      PP19973  10.205   4.938   9.315 -0.2453  0.0752  0.2603
 9870PP      PP19974   9.524   3.422   2.531 -0.1032 -0.0879  0.0958
 9871PP      PP19975   0.703   2.080   3.553  0.1724  0.1542  0.0727
 9872PP      PP19976   9.069   9.171  12.265 -0.0112  0.0555 -0.1385
 9873PP      PP19977  15.727   0.209   0.715 -0.1067  0.2744  0.2644
 9874PP      PP19978   8.410  12.288   0.970  0.0755 -0.2522 -0.0809
 9875PP      PP19979  15.518   2.304   2.726 -0.0257  0.1125  0.0942
 9876PP      PP19980   7.687   4.498  13.315 -0.0506  0.1195 -0.2396
 9877PP      PP19981   9.439   1.944   2.321 -0.0783 -0.3182  0.2515
 9878PP      PP19982   8.227   3.331  10.161 -0.0161 -0.1309  0.4340
 9879PP      PP19983   1.026   5.958   9.406 -0.0030 -0.0918  0.0019
 9880PP      PP19984   2.194  12.857   4.661  0.2785 -0.0111  0.0269
 9881PP      PP19985   9.491  11.934   2.231 -0.3256  0.1172  0.0086
 9882PP      PP19986   5.591   8.104  12.161 -0.1621  0.1086 -0.0536
 9883PP      PP19987   9.153   9.514  13.152  0.3171 -0.2480  0.0472
 9884PP      PP19988   6.011   4.385   5.071  0.0917 -0.0952 -0.0244
 9885PP      PP19989  11.978   0.695   4.072 -0.4543  0.1561  0.0319
 9886PP      PP19990  11.576   1.825   3.346  0.2025 -0.1899 -0.3949
 9887PP      PP19991  10.767   0.068  12.802  0.0104 -0.0783  0.2832
 9888PP      PP19992  12.102  12.552   0.365 -0.0350 -0.2409  0.0155
 9889PP      PP19993  10.244  13.041   3.297 -0.1243  0.0203  0.2750
 9890PP      PP19994  11.803  14.162   0.842  0.2297  0.0946 -0.3817
 9891PP      PP19995   5.739   3.670   9.880  0.3050 -0.1500 -0.2304
 9892PP      PP19996  14.085   0.387   8.862  0.1736  0.2574  0.0068
 9893PP      PP19997  13.507  13.547  12.420  0.0421  0.1941  0.0026
 9894PP      PP19998  10.896   3.249   4.577  0.1163 -0.1368 -0.1619
 9895PP      PP19999  12.222   0.486   8.972  0.2561 -0.2863  0.1226
 9896PP      PP20000   6.060  14.169   3.540  0.1672 -0.0288 -0.1612
 9897PP      PP20001  10.382   7.280   2.991 -0.1061 -0.4797  0.1122
 9898PP      PP20002   8.548   5.019   2.129  0.0211  0.2680  0.1689
 9899PP      PP20003  10.944  10.466   2.890  0.1628 -0.2225 -0.1519
 9900PP      PP20004   1.362   6.717  13.340 -0.0646 -0.0813  0.0257
 9901PP      PP20005   2.371   5.160   3.134 -0.1590  0.0413 -0.0294
 9902PP      PP20006   6.784   9.014   2.096 -0.1757 -0.0563 -0.0654
 9903PP      PP20007   9.724   2.958  12.340 -0.1465  0.5006  0.1206
 9904PP      PP20008   2.162   4.512   4.788 -0.0269 -0.0938  0.0827
 9905PP      PP20009   0.500   6.525   4.768 -0.0062  0.1680  0.0673
 9906PP      PP20010  10.100  14.023   3.932 -0.0771 -0.5750 -0.3823
 9907PP      PP20011  13.041  14.719   8.739 -0.0327  0.2356 -0.3806
 9908PP      PP20012   4.289  14.764   4.938 -0.1704 -0.2174 -0.0726
 9909PP      PP20013   2.921   4.639   3.948  0.2535 -0.1714 -0.0840
 9910PP      PP20014   9.213   3.929   2.575  0.0221 -0.0465  0.1672
 9911PP      PP20015   3.415   1.456   2.034  0.1956 -0.1285  0.0639
 9912PP      PP20016  10.280   1.049  12.811  0.0605 -0.2209 -0.1927
 9913PP      PP20017   8.696   6.179   9.922 -0.0033  0.0440  0.1052
 9914PP      PP20018   3.083  11.539  12.219 -0.0614  0.0102 -0.1595
 9915PP      PP20019  13.106  12.197  12.934  0.1682  0.1657 -0.0563
 9916PP      PP20020   2.019  13.884   3.931  0.1305 -0.1649 -0.1406
 9917PP      PP20021   3.196  13.929   1.700 -0.0510 -0.1072 -0.1156
 9918PP      PP20022   8.129  13.967   3.020  0.0028 -0.0444  0.0160
 9919PP      PP20023  13.274  10.913  10.877 -0.1026 -0.2020 -0.3779
 9920PP      PP20024   9.811  14.201   1.070 -0.0463  0.0692 -0.0077
 9921PP      PP20025   3.396  10.928   1.122  0.0769  0.0792 -0.1328
 9922PP      PP20026  12.547  14.735   8.742 -0.1037 -0.2776 -0.0823
 9923PP      PP20027   4.072  10.194   0.947  0.1871  0.1273 -0.4250
 9924PP      PP20028   6.460  11.560  10.785 -0.0726  0.0352 -0.2403
 9925PP      PP20029   2.950  11.023   3.900  0.2446 -0.1108 -0.1630
 9926PP      PP20030   9.892   9.169  10.660 -0.0875 -0.2570  0.1783
 9927PP      PP20031   0.478   7.607   9.565 -0.3273  0.0290 -0.0067
 9928PP      PP20032  12.326  14.364  11.366  0.1700  0.1262  0.0574
 9929PP      PP20033  12.720   5.873   3.650 -0.0743 -0.2047 -0.0924
 9930PP      PP20034  14.829   6.429  10.207 -0.0297  0.1133  0.3384
 9931PP      PP20035   3.238  11.073   2.867  0.2683  0.0151 -0.1462
 9932PP      PP20036   1.582   1.152   3.670  0.2159  0.4011  0.1386
 9933PP      PP20037   8.531  12.951   4.038  0.5037 -0.1107  0.0354
 9934PP      PP20038   2.873   4.742  13.029  0.3375  0.0903 -0.1822
 9935PP      PP20039  11.233   0.571   0.179 -0.1438  0.1172  0.0577
 9936PP      PP20040   6.127   4.399  10.286  0.2651  0.3710 -0.2490
 9937PP      PP20041   6.426  12.437  13.292 -0.0670 -0.3617  0.1004
 9938PP      PP20042   8.602   3.855  10.883 -0.2660  0.2446  0.1074
 9939PP      PP20043   5.115   7.204   1.728 -0.0964 -0.2282 -0.1073
 9940PP      PP20044   0.697   0.889   9.452  0.2504  0.1038 -0.0292
 9941PP      PP20045  11.724   1.834   1.340 -0.0554  0.2852 -0.0334
 9942PP      PP20046   1.534   1.224   8.532 -0.1005 -0.2427 -0.1238
 9943PP      PP20047   7.240  10.349   0.820 -0.0321 -0.0731  0.0572
 9944PP      PP20048  12.280  15.298   0.795  0.1997  0.0117  0.0158
 9945PP      PP20049  13.846   4.202   4.591 -0.0438 -0.1969  0.3438
 9946PP      PP20050   3.385   5.249   3.345 -0.3478 -0.1359  0.2816
 9947PP      PP20051   4.941   1.949   0.947 -0.1438  0.1952  0.0793
 9948PP      PP20052   4.507  10.611   3.687  0.3435 -0.1238 -0.1234
 9949PP      PP20053   7.980  15.388   0.126 -0.1269  0.1630 -0.0335
 9950PP      PP20054   5.489   9.582  10.739 -0.0465 -0.0967 -0.2346
 9951PP      PP20055  14.241  12.656   0.440 -0.1843 -0.2038  0.1009
 9952PP      PP20056   0.767   6.989   9.979 -0.3009 -0.2119 -0.2419
 9953PP      PP20057   8.509   4.514  12.725 -0.1095  0.0496 -0.0155
 9954PP      PP20058   8.200  12.983   1.174  0.2009  0.1324  0.0397
 9955PP      PP20059   4.264   5.781  13.307 -0.0334 -0.0657 -0.1110
 9956PP      PP20060   3.951  13.735   8.795 -0.0876  0.1130  0.3104
 9957PP      PP20061  12.034   2.280  10.005  0.2633 -0.0325  0.1599
 9958PP      PP20062  11.086   1.544  12.653  0.1753 -0.0543 -0.1987
 9959PP      PP20063   9.219   8.162  12.598 -0.0904  0.0372  0.0979
 9960PP      PP20064   5.946   0.872   8.436  0.2762 -0.0696  0.0774
 9961PP      PP20065   1.302  14.951   3.259  0.0930 -0.2100  0.1221
 9962PP      PP20066  12.764  10.926   9.773  0.3438 -0.2243  0.2119
 9963PP      PP20067   5.498  13.770  12.333  0.0748 -0.3034  0.1692
 9964PP      PP20068  14.733   5.532   2.479 -0.2888  0.0586 -0.2777
 9965PP      PP20069  10.347  14.153  11.442 -0.0872  0.0834  0.0176
 9966PP      PP20070  12.789  13.009  12.633 -0.1867  0.1812  0.1264
 9967PP      PP20071  15.065   7.738   1.652 -0.3383 -0.1294 -0.3274
 9968PP      PP20072   6.119   5.877   8.790 -0.0847 -0.0143  0.2541
 9969PP      PP20073  15.249  10.954   9.632  0.0368 -0.4214 -0.0148
 9970PP      PP20074   2.897   6.624  11.155  0.2119  0.0162  0.0215
 9971PP      PP20075   1.184  10.309   1.245 -0.0044 -0.2006  0.3432
 9972PP      PP20076   4.582  14.932  12.467 -0.3369  0.3461  0.0919
 9973PP      PP20077   0.427  10.890   0.231  0.0887  0.3569  0.1043
 9974PP      PP20078   2.899  12.649   9.897  0.0205  0.3099  0.1676
 9975PP      PP20079   8.765   1.070   2.065 -0.1350 -0.0073  0.0616
 9976PP      PP20080   9.132   7.352   3.894  0.0035 -0.0353 -0.2414
 9977PP      PP20081   0.592  12.391  12.103 -0.1592  0.1714  0.1841
 9978PP      PP20082  13.018   4.634   9.980  0.3831 -0.1915 -0.0776
 9979PP      PP20083  11.448  11.213   1.485  0.2109  0.1465 -0.6583
 9980PP      PP20084  13.631   2.323   0.139 -0.3501  0.0018 -0.1686
 9981PP      PP20085  10.492   8.140   3.928  0.3846 -0.2132  0.2119
 9982PP      PP20086   9.401  12.077   3.299  0.1580 -0.0472  0.1139
 9983PP      PP20087   6.667   3.701   3.393 -0.2340  0.0470  0.0698
 9984PP      PP20088   4.025   5.900   2.405 -0.0714 -0.2402 -0.2115
 9985PP      PP20089  13.932  14.207   1.864  0.1564 -0.0187  0.0762
 9986PP      PP20090   8.357   1.251   0.420 -0.0650  0.1160  0.2645
 9987PP      PP20091  10.035   6.937   2.733  0.1299 -0.1923  0.0551
 9988PP      PP20092  13.683   1.700   0.224 -0.1708  0.2145 -0.1181
 9989PP      PP20093  13.511  12.179  12.591 -0.0170 -0.1049 -0.0479
 9990PP      PP20094   1.555   0.097  12.261  0.2797  0.1688 -0.3099
 9991PP      PP20095   3.437   8.483   3.715  0.0945  0.1506  0.2261
 9992PP      PP20096   9.122   4.489   1.452 -0.1309  0.1113  0.2170
 9993PP      PP20097  13.778   4.511   0.264  0.1590 -0.0114 -0.1360
 9994PP      PP20098   5.554   3.890  11.793  0.1920  0.3238 -0.0001
 9995PP      PP20099   5.786  10.297  12.728 -0.0752 -0.2405 -0.5542
 9996PP      PP20100   6.951   2.867  12.441  0.0875 -0.0588 -0.0846
 9997PP      PP20101  11.364  11.281  10.415  0.0230 -0.6032 -0.0228
 9998PP      PP20102  14.216   5.276   4.241 -0.2014 -0.2193  0.1094
 9999PP      PP20103   8.444   7.836   9.384 -0.0125  0.0109 -0.0827
10000PP      PP20104   3.789   8.549   4.749  0.3163  0.0480  0.2466
10001PP      PP20105   5.010  10.462  11.124 -0.2234  0.2458  0.0474
10002PP      PP20106   9.715   7.125  12.482 -0.1220 -0.0876  0.2104
10003PP      PP20107   7.349  14.330   1.047 -0.0658 -0.0154 -0.1526
10004PP      PP20108   7.737  12.970   0.981  0.1077  0.1669 -0.2489
10005PP      PP20109   1.764   7.374  12.146 -0.1371 -0.0980  0.0060
10006PP      PP20110   2.557  13.802   0.232 -0.4582  0.0224  0.0247
10007PP      PP20111   5.361   9.749  13.109 -0.0165  0.1067  0.0417
10008PP      PP20112  12.119   1.488  13.204 -0.0789  0.2126  0.2410
10009PP      PP20113  10.380  15.850   9.700  0.1707  0.0835 -0.1084
10010PP      PP20114   0.450   1.628   3.866 -0.0920 -0.2104 -0.2581
10011PP      PP20115   6.031   8.619   1.990  0.0604 -0.2816 -0.1834
10012PP      PP20116   3.390   0.679  12.396  0.0577 -0.2735  0.4134
10013PP      PP20117   2.988   2.775   4.054  0.2361  0.1517 -0.0290
10014PP      PP20118   7.889   6.301  12.754  0.1945 -0.0547  0.0268
10015PP      PP20119   7.429   1.390   9.573 -0.0666  0.2259 -0.1207
10016PP      PP20120  14.090   8.505   9.597  0.1612  0.1935  0.0727
10017PP      PP20121   4.039   9.141   9.679  0.2167  0.0002 -0.0176
10018PP      PP20122  11.745   2.506   1.581  0.1399 -0.0586  0.0783
10019PP      PP20123  12.263   2.232   3.138  0.2252  0.0177  0.0625
10020PP      PP20124   9.676   5.495  11.547  0.1830  0.1605 -0.1381
10021PP      PP20125   0.914  12.808   2.707 -0.0665  0.1159  0.0310
10022PP      PP20126   8.819   8.317   1.564  0.1901  0.0882 -0.0565
10023PP      PP20127  15.027   7.779  11.890  0.0570  0.0083  0.0799
10024PP      PP20128   8.957   4.267   3.720 -0.1052  0.1185 -0.1224
10025PP      PP20129   3.310   2.666   3.327  0.0599 -0.0264 -0.0505
10026PP      PP20130   8.193   8.589   2.507 -0.0039 -0.1594 -0.1195
10027PP      PP20131   0.068  12.582   2.294 -0.0161 -0.2069  0.2408
10028PP      PP20132   0.855   6.886  12.022 -0.2881  0.0983  0.1318
10029PP      PP20133  12.299  15.268  12.060  0.3848 -0.3087 -0.1668
10030PP      PP20134   1.907   2.923   0.127 -0.6227  0.1669  0.0620
10031PP      PP20135   0.074   4.750   3.192 -0.0523  0.0141  0.1871
10032PP      PP20136  10.979   2.332   0.742  0.1073  0.1049  0.3060
10033PP      PP20137   5.773   3.730  10.913  0.0186  0.2865 -0.2311
10034PP      PP20138   8.127   3.604  11.750 -0.2718  0.3333  0.2653
10035PP      PP20139   0.182   1.670  11.249 -0.2773 -0.1324 -0.0094
10036PP      PP20140   6.435  15.355   1.304  0.1833 -0.0394  0.0436
10037PP      PP20141  11.954   4.096   9.079 -0.0045 -0.1194 -0.0393
10038PP      PP20142   6.544  10.182   0.579 -0.0433 -0.1153 -0.0693
10039PP      PP20143   4.462   7.886   1.257 -0.3074 -0.0388 -0.1732
10040PP      PP20144   2.835  11.691  10.229  0.1907 -0.3355  0.2363
10041PP      PP20145   9.037  15.279   1.289 -0.4119  0.4693  0.2132
10042PP      PP20146   2.775  11.068  12.613 -0.0897 -0.2984  0.0224
10043PP      PP20147  10.969  10.375   3.851 -0.0000  0.1709 -0.1116
10044PP      PP20148  14.355   7.219  13.232 -0.1778 -0.1908 -0.2035
10045PP      PP20149   3.225  11.903  11.627  0.2277 -0.2732 -0.1207
10046PP      PP20150   3.428   8.455   0.942 -0.1237 -0.1219 -0.1236
10047PP      PP20151   6.898   9.036   4.130 -0.1311 -0.0714  0.3930
10048PP      PP20152  12.304  10.468   0.748 -0.3467  0.1537 -0.1609
10049PP      PP20153   7.566  11.574  12.719 -0.0999  0.1167  0.1296
10050PP      PP20154  11.044   5.460  12.186 -0.1021  0.1170 -0.1661
10051PP      PP20155  15.793   8.200  12.762 -0.0373 -0.0099 -0.0315
10052PP      PP20156   4.535   0.778  10.510  0.0514  0.0739  0.0306
10053PP      PP20157  12.079   7.716  12.221 -0.0381 -0.0218 -0.1835
10054PP      PP20158   0.292  11.837   4.268 -0.1985  0.1843 -0.0298
10055PP      PP20159   3.206   3.155   2.434 -0.1021  0.1983  0.0648
10056PP      PP20160  12.119   8.257  12.012  0.0814 -0.0141 -0.3166
10057PP      PP20161   7.162   5.382   0.026  0.5292 -0.0572 -0.2174
10058PP      PP20162  12.885   4.351   8.749 -0.0635  0.3282  0.2493
10059PP      PP20163  15.753  11.468   3.157 -0.3071 -0.1585  0.3287
10060PP      PP20164   8.883  12.140  12.777  0.0849  0.0030  0.0907
10061PP      PP20165  11.142   5.692   9.296 -0.0162  0.0511  0.0873
10062PP      PP20166   6.376  15.172  11.743  0.2722  0.2619  0.2153
10063PP      PP20167  12.518   2.996  10.008 -0.1339 -0.1512  0.1707
10064PP      PP20168   7.168   7.142   3.503  0.0305 -0.3137  0.0782
10065PP      PP20169  14.921  14.767   0.962  0.1508 -0.0268 -0.1944
10066PP      PP20170  10.776  10.882   8.968 -0.0160 -0.1677 -0.0475
10067PP      PP20171  10.460   9.238   1.038 -0.1722 -0.5470 -0.1933
10068PP      PP20172   0.321   4.452  12.306 -0.0118  0.1743 -0.1357
10069PP      PP20173   7.830   7.943   0.502  0.2833 -0.1727  0.1464
10070PP      PP20174   7.145   2.604  12.844 -0.0506 -0.1418  0.0212
10071PP      PP20175   4.304   8.913  12.601  0.0817 -0.3370  0.2369
10072PP      PP20176   1.906   7.080   0.775  0.0576  0.2243 -0.0718
10073PP      PP20177   0.650   4.816  11.858  0.4030 -0.2909 -0.1599
10074PP      PP20178   2.409   0.583   1.270  0.0532 -0.2005  0.0221
10075PP      PP20179  10.145   1.909  12.865  0.0435 -0.1407  0.1563
10076PP      PP20180  12.720  12.897   2.382  0.2211 -0.2370  0.1651
10077PP      PP20181  15.606   6.103   2.568 -0.2410 -0.2573  0.0711
10078PP      PP20182   6.617  12.660   4.505  0.3846 -0.3095 -0.1291
10079PP      PP20183   8.761   3.593  10.375 -0.1998 -0.1640  0.1827
10080PP      PP20184  14.131   7.792  11.572 -0.0814 -0.1207  0.1048
10081PP      PP20185  12.046  10.897  10.940 -0.4668  0.1179 -0.0058
10082PP      PP20186  15.393  12.386  10.463  0.0306 -0.0757  0.1462
10083PP      PP20187   7.944  13.523   2.746 -0.3383  0.1478 -0.2234
10084PP      PP20188   6.096  13.629  10.089  0.0352  0.0505 -0.1885
10085PP      PP20189   7.267   7.262   2.591 -0.2583  0.2419 -0.0167
10086PP      PP20190   0.808   4.385   2.571 -0.1629  0.0829  0.2821
10087PP      PP20191   9.742   9.643   4.006 -0.0855  0.0137  0.0675
10088PP      PP20192  15.114   3.093   4.661 -0.0745  0.0958  0.2547
10089PP      PP20193   1.033  13.038   3.850  0.3166  0.2227  0.1552
10090PP      PP20194   1.609   7.347   9.752  0.0938 -0.1344 -0.0019
10091PP      PP20195   2.469  10.946   4.181  0.4060 -0.2237  0.0466
10092PP      PP20196   7.343  10.968   9.207 -0.1931 -0.1316  0.1646
10093PP      PP20197   9.554   0.824  12.348  0.0310  0.2860 -0.1565
10094PP      PP20198  13.004  13.226   2.057 -0.3986 -0.2303  0.3517
10095PP      PP20199  15.515  12.795   0.459 -0.2018 -0.1573 -0.1149
10096PP      PP20200  11.279   9.937   3.277 -0.2889 -0.0645  0.5182
10097PP      PP20201  15.443   7.424   1.825 -0.0938 -0.0951 -0.2626
10098PP      PP20202  15.828   7.838  10.789  0.2624 -0.1174  0.0563
10099PP      PP20203   9.211   9.688   1.543  0.0600 -0.0025 -0.3357
10100PP      PP20204  15.198   2.255   0.614 -0.1001 -0.1783  0.0035
10101PP      PP20205  14.173   6.480   2.475 -0.2312  0.0712  0.0288
10102PP      PP20206  12.456   3.672   1.302  0.2710  0.0182  0.0615
10103PP      PP20207  14.117   5.979   1.206 -0.2484 -0.2568 -0.1909
10104PP      PP20208  10.327   7.762   3.106  0.2536  0.3256  0.1315
10105PP      PP20209  11.366   4.581  10.161  0.2648  0.1104  0.2014
10106PP      PP20210   2.767  14.471  12.930 -0.1262 -0.1315  0.0769
10107PP      PP20211   7.554  12.831  10.388 -0.0773  0.0441 -0.1994
10108PP      PP20212   2.006  12.583   9.647 -0.2400 -0.0952 -0.0518
10109PP      PP20213  14.223  13.448  10.149  0.2009 -0.1289  0.0513
10110PP      PP20214   9.470   3.277   0.136 -0.1734 -0.0861  0.2379
10111PP      PP20215   9.565  14.991  12.760  0.1488  0.2084 -0.0334
10112PP      PP20216   7.349   0.619   1.728 -0.0494  0.0652  0.0134
10113PP      PP20217  11.285   8.928   9.663 -0.0458 -0.2707  0.1011
10114PP      PP20218   9.859   6.578   3.102  0.1346 -0.0254  0.0120
10115PP      PP20219   4.677   3.397   1.872 -0.0519 -0.1307  0.0406
10116PP      PP20220   7.279  10.907   3.451 -0.0610  0.1441 -0.1967
10117PP      PP20221   9.443   5.231   3.273  0.0057  0.3997 -0.0528
10118PP      PP20222   6.519  12.142   9.027  0.0822 -0.3961  0.1993
10119PP      PP20223  15.323   6.445  10.633  0.1977  0.1193 -0.2331
10120PP      PP20224   5.624  10.056  13.383 -0.3025 -0.5612  0.2702
10121PP      PP20225  13.554  14.323   3.718 -0.1119 -0.1795 -0.0894
10122PP      PP20226   7.136   6.933  13.217  0.2672 -0.0213  0.3459
10123PP      PP20227   2.584   5.835   0.164  0.3003 -0.0717  0.2349
10124PP      PP20228   5.915   1.145   9.853 -0.3291  0.0882  0.2613
10125PP      PP20229  12.238  15.557  12.544  0.0434  0.0279 -0.0301
10126PP      PP20230  15.181  10.336  10.202  0.0135  0.3563  0.0889
10127PP      PP20231  11.026  14.262   0.783  0.2278 -0.2426  0.1508
10128PP      PP20232   2.934   3.107   0.097 -0.1480  0.0120 -0.0393
10129PP      PP20233  13.719  10.563  12.213 -0.2078  0.0556 -0.3536
10130PP      PP20234  14.257  10.144  12.521  0.1222  0.1888 -0.0236
10131PP      PP20235  12.681   8.078   2.776 -0.1303 -0.3106  0.2348
10132PP      PP20236  12.672   7.524   4.493 -0.2212 -0.3335 -0.1183
10133PP      PP20237   4.532   1.841  11.380  0.0632  0.0683 -0.1515
10134PP      PP20238   3.729  10.708   1.534 -0.0474  0.0130  0.2529
10135PP      PP20239  12.201   2.513   1.840 -0.1723  0.0413  0.2682
10136PP      PP20240   1.698   1.915   0.148 -0.2448 -0.2907  0.2031
10137PP      PP20241  10.942  11.620   2.616 -0.0253 -0.1338  0.0477
10138PP      PP20242   4.342   8.599   0.107 -0.1083  0.2098 -0.1675
10139PP      PP20243   9.146  11.036  12.056  0.0877  0.0708 -0.2515
10140PP      PP20244  13.286   1.873   9.739  0.0152  0.4931  0.3119
10141PP      PP20245   3.295   2.535  12.445 -0.0356 -0.1522 -0.0783
10142PP      PP20246  15.320   7.590   4.438  0.0999 -0.1322 -0.1488
10143PP      PP20247   6.073   8.478   0.461 -0.1352  0.0903  0.0536
10144PP      PP20248  14.800  14.358   1.200  0.0262 -0.1709  0.1078
10145PP      PP20249   4.439   3.440   9.922  0.1958 -0.3170  0.1283
10146PP      PP20250   7.340   5.521  12.861 -0.1782 -0.3091 -0.1932
10147PP      PP20251  12.402   4.885   9.153 -0.0477  0.0103  0.0731
10148PP      PP20252   9.712   3.907   2.760  0.2341  0.1823  0.1284
10149PP      PP20253  11.811   8.712  11.219 -0.1799  0.1614 -0.1414
10150PP      PP20254  12.390  12.780   1.455 -0.0739 -0.3162 -0.1211
10151PP      PP20255   3.245  10.195  13.391 -0.0144  0.1845 -0.0774
10152PP      PP20256   0.955   6.105  11.757 -0.1937 -0.1132 -0.0486
10153PP      PP20257   5.061  14.253   4.761 -0.1077  0.2215 -0.1660
10154PP      PP20258  13.196  11.220   8.778 -0.0852  0.1580 -0.0854
10155PP      PP20259   6.881   0.855  12.702  0.0024 -0.0435 -0.0165
10156PP      PP20260   2.402  14.187   4.075  0.0073 -0.2903  0.1271
10157PP      PP20261  11.028   6.657   9.410  0.1151  0.0651 -0.1197
10158PP      PP20262  15.597  14.327  11.241  0.0877 -0.1601  0.2435
10159PP      PP20263   4.520  11.417   3.965  0.2238 -0.1447 -0.0773
10160PP      PP20264   2.192  12.236   3.863 -0.4527 -0.0711  0.2583
10161PP      PP20265  11.287   3.108   4.365  0.0750 -0.1334 -0.1104
10162PP      PP20266   6.825   4.693   2.210 -0.1383 -0.0374  0.0964
10163PP      PP20267   5.563   7.411   1.213  0.0189  0.2040  0.4853
10164PP      PP20268  11.030   5.336   0.088 -0.0663 -0.3658 -0.0685
10165PP      PP20269   6.138  11.745   8.842  0.1651 -0.2107  0.1953
10166PP      PP20270   1.995   1.153   3.333 -0.1862  0.2983  0.1454
10167PP      PP20271  14.918  13.406  11.019  0.3801  0.1521 -0.0311
10168PP      PP20272  12.357  10.383   4.002  0.0714 -0.0458  0.0085
10169PP      PP20273   0.599   5.106   1.948 -0.1090  0.1832 -0.1994
10170PP      PP20274   1.677   3.314  13.357  0.1423  0.3035  0.1341
10171PP      PP20275  13.083  12.563  12.564 -0.1979 -0.0869 -0.1175
10172PP      PP20276   3.238   4.614   2.185  0.0573 -0.0752  0.0437
10173PP      PP20277   2.272  13.713  10.336  0.1461 -0.0417 -0.0882
10174PP      PP20278   2.144   1.368   2.441 -0.1075 -0.0579 -0.1560
10175PP      PP20279   1.390  10.450  11.214  0.1984 -0.0430  0.0758
10176PP      PP20280   8.549   8.486  12.981 -0.0830 -0.0083  0.1963
10177PP      PP20281   8.312  13.954  13.416  0.1449  0.2209 -0.4144
10178PP      PP20282   6.167   8.047   0.785 -0.0537  0.3607 -0.1728
10179PP      PP20283   1.981   1.009   0.101 -0.1972 -0.0741  0.2116
10180PP      PP20284  15.833   9.099  12.619  0.1158 -0.0781  0.1108
10181PP      PP20285   2.257   5.081  12.112 -0.2985  0.0977  0.1619
10182PP      PP20286  13.946  12.151   2.034 -0.0614  0.0107 -0.0945
10183PP      PP20287  15.154  13.882   0.518  0.3360  0.1212 -0.0972
10184PP      PP20288   1.782   0.283   1.064 -0.1828  0.0298  0.1336
10185PP      PP20289  11.647   1.230   2.355 -0.1083  0.2709  0.0070
10186PP      PP20290   5.983  15.577  11.135  0.1628  0.0489  0.0808
10187PP      PP20291   7.155  11.748   0.898 -0.2225  0.0191 -0.2862
10188PP      PP20292  10.438   4.305   3.167 -0.0261 -0.2310  0.6534
10189PP      PP20293   4.013  11.511   0.740 -0.0470  0.3112 -0.2999
10190PP      PP20294   7.477   0.460  13.058 -0.0032 -0.0822  0.0955
10191PP      PP20295   1.074   2.952   9.331  0.0660 -0.0552 -0.0479
10192PP      PP20296  15.017   1.380  12.880 -0.0840  0.2742 -0.0850
10193PP      PP20297   6.138   4.866   0.470  0.0734 -0.0461  0.2775
10194PP      PP20298   0.624   5.332  11.982 -0.1020  0.1722 -0.0695
10195PP      PP20299   9.085   0.081   0.645 -0.1403  0.0478 -0.2019
10196PP      PP20300   7.226   2.721   1.223 -0.1519  0.0077 -0.2888
10197PP      PP20301  12.207  10.609  13.382  0.1403 -0.2889  0.4553
10198PP      PP20302   4.272   5.233   0.305  0.5013  0.2404 -0.3545
10199PP      PP20303  15.118  15.313  12.587  0.0073 -0.0576  0.2207
10200PP      PP20304  12.921  14.476   2.764 -0.0391  0.1952  0.0509
10201PP      PP20305  14.930   1.007   2.128  0.1723  0.3382  0.3845
10202PP      PP20306   7.888  15.095  12.644 -0.1335  0.1764 -0.1070
10203PP      PP20307  10.128  15.575  10.334  0.2477  0.1026 -0.2051
10204PP      PP20308   3.990   6.696   3.089 -0.0441 -0.1323  0.4296
10205PP      PP20309  11.652  11.504   2.157 -0.0743  0.1746 -0.0309
10206PP      PP20310   1.325   1.535  10.791 -0.2849  0.1172  0.4285
10207PP      PP20311   8.982   7.627   3.421 -0.0608  0.0893  0.0556
10208PP      PP20312  13.577   7.791   2.849  0.0221 -0.3102  0.0456
10209PP      PP20313   5.256   3.318  11.667  0.3790 -0.0449  0.1817
10210PP      PP20314   6.367  13.273  11.721  0.1589 -0.2237  0.0693
10211PP      PP20315   8.252   5.897   3.740  0.2491 -0.1919  0.0753
10212PP      PP20316  13.251  10.283   3.174 -0.1715 -0.0067  0.2936
10213PP      PP20317   7.925  15.374  11.681  0.0443 -0.0153 -0.0964
10214PP      PP20318  12.594   6.709   3.921  0.1105 -0.1202  0.2248
10215PP      PP20319  11.367   3.769  10.137  0.1281  0.1009  0.1882
10216PP      PP20320  15.386   8.891   1.883 -0.0398  0.1218 -0.2617
10217PP      PP20321  13.187  13.544   0.154 -0.1105  0.0167  0.0886
10218PP      PP20322  13.444  10.742  11.297 -0.3081  0.0328  0.0706
10219PP      PP20323   9.771  14.090   9.965 -0.0609 -0.0153  0.0999
10220PP      PP20324   6.343   0.623  11.756 -0.1132  0.0004  0.0448
10221PP      PP20325   8.715   7.891  10.979 -0.3061  0.0911 -0.0705
10222PP      PP20326   1.741   1.597   3.329 -0.2880  0.1505  0.0844
10223PP      PP20327  10.519   9.254   2.758  0.0920  0.0063 -0.1089
10224PP      PP20328   9.634  12.844   1.857  0.1544 -0.1354  0.1817
10225PP      PP20329  11.723   9.041   3.222  0.0911 -0.0664 -0.2755
10226PP      PP20330   1.771   8.467  10.528  0.0190  0.1430  0.5453
10227PP      PP20331   8.372   1.112  11.542 -0.0715 -0.0729  0.0673
10228PP      PP20332   8.061   8.482   4.790 -0.0361  0.5202  0.0671
10229PP      PP20333  10.534   9.302  12.429 -0.1628  0.1719 -0.4353
10230PP      PP20334   6.839   7.831   0.134 -0.2120 -0.0584  0.3390
10231PP      PP20335  13.454  12.680   1.829 -0.2836  0.0206 -0.2026
10232PP      PP20336  10.608   6.820   3.502 -0.2146  0.5750 -0.0693
10233PP      PP20337   5.206   1.372   4.917  0.1751  0.2851 -0.0759
10234PP      PP20338  14.943  11.887   3.114  0.1249 -0.0707 -0.1418
10235PP      PP20339  14.782   2.438   1.436 -0.0129 -0.1737  0.0477
10236PP      PP20340   5.106  10.382   9.734  0.0004 -0.2975  0.1453
10237PP      PP20341   6.496   6.614   0.880 -0.1150 -0.1020 -0.0536
10238PP      PP20342   3.552  10.667   2.761 -0.2073 -0.1810 -0.6048
10239PP      PP20343   5.871   2.403   3.572 -0.0890 -0.1222  0.1049
10240PP      PP20344   9.627  11.199   2.852  0.0662  0.1252  0.0586
10241PP      PP20345   6.468   6.325   2.428 -0.1101 -0.2559  0.0250
10242PP      PP20346   2.184   8.388   1.569  0.1092 -0.0068 -0.1315
10243PP      PP20347  10.225   7.966  12.730 -0.2469 -0.1337  0.3500
10244PP      PP20348  13.104   0.254   2.724  0.1141  0.1158  0.0709
10245PP      PP20349  15.237  12.811   3.127  0.1616  0.0830  0.0451
10246PP      PP20350   2.098  11.576  12.393 -0.1739 -0.1403 -0.0531
10247PP      PP20351   1.533   1.139   0.243 -0.1331  0.2616  0.2663
10248PP      PP20352  12.118   0.923   1.086 -0.2208  0.4556  0.1237
10249PP      PP20353   1.242   4.085  13.347  0.1906  0.1004 -0.1923
10250PP      PP20354  15.356   7.876  12.910 -0.0326 -0.1142  0.0180
10251PP      PP20355   2.718  14.411  10.578  0.2072  0.1827  0.2081
10252PP      PP20356   7.081   9.617  13.336  0.0654  0.0343  0.1002
10253PP      PP20357   3.728   3.847  10.977  0.0374 -0.0723  0.1137
10254PP      PP20358   1.532  10.578  11.989 -0.2001  0.2372  0.1848
10255PP      PP20359  11.260   2.897   8.850 -0.1981 -0.0360  0.1752
10256PP      PP20360  10.298  14.445   1.131  0.1378 -0.0909 -0.3183
10257PP      PP20361   8.249   1.927   0.602 -0.0044 -0.1572  0.3550
10258PP      PP20362  10.927   6.112   9.462  0.0863  0.0975  0.2085
10259PP      PP20363  15.684   6.505   0.622  0.3196 -0.0837 -0.4157
10260PP      PP20364   4.535   7.139  11.902  0.0531  0.0780  0.2565
10261PP      PP20365   6.417   8.833   1.647  0.0178 -0.0348  0.2072
10262PP      PP20366  12.653   4.193  10.597 -0.0988 -0.4807  0.1151
10263PP      PP20367  10.383   6.885   4.467  0.2465  0.2121 -0.0359
10264PP      PP20368  12.300   4.431   8.955  0.1089  0.0371 -0.1103
10265PP      PP20369   3.985   2.854  12.721  0.0062 -0.0339 -0.1926
10266PP      PP20370   0.796   9.641  11.327  0.1245  0.0479 -0.2018
10267PP      PP20371   3.250  15.654   9.753  0.0974  0.4255 -0.0688
10268PP      PP20372   8.610   2.273   2.456 -0.0975 -0.0737 -0.2772
10269PP      PP20373  12.880  15.707   9.752  0.0793  0.1083 -0.1346
10270PP      PP20374   6.465  12.064   9.505 -0.0652  0.0489  0.0811
10271PP      PP20375  15.668   6.258   9.298 -0.1708 -0.1128  0.1107
10272PP      PP20376   9.048  11.181  11.511  0.2101 -0.0709 -0.0452
10273PP      PP20377  13.150   5.409  11.376 -0.0282  0.5539  0.2895
10274PP      PP20378  11.353   4.848   3.739 -0.4046  0.1472  0.0371
10275PP      PP20379  11.581   8.458   2.682 -0.0701  0.1939  0.2869
10276PP      PP20380   9.486   2.148   0.100 -0.0645 -0.1705  0.2797
10277PP      PP20381   5.964  15.780   0.728  0.2590  0.2998 -0.1938
10278PP      PP20382   4.205  12.088  10.919 -0.3444 -0.2599 -0.3718
10279PP      PP20383  10.320   1.873  10.166  0.6066 -0.0129 -0.1579
10280PP      PP20384   6.138   0.836   0.109  0.0668  0.0393 -0.3156
10281PP      PP20385   0.542   6.099   4.480 -0.4480  0.0732 -0.2722
10282PP      PP20386  13.076  10.440   9.322  0.2118  0.6378  0.1359
10283PP      PP20387   3.182   5.680  12.009  0.0968  0.0016 -0.2005
10284PP      PP20388   4.080   6.759   9.802 -0.2985 -0.0364 -0.2886
10285PP      PP20389   1.727   7.809   0.926 -0.0687  0.1186 -0.1953
10286PP      PP20390  10.650  11.140  10.054  0.0239 -0.0209  0.0834
10287PP      PP20391   9.901   5.201   1.591  0.0522 -0.2339  0.1806
10288PP      PP20392  11.915   1.505   1.939  0.0493 -0.0972 -0.0030
10289PP      PP20393  10.122   4.242   0.466 -0.0988 -0.1550 -0.2293
10290PP      PP20394   0.598  13.996  11.427 -0.2156 -0.2600 -0.3113
10291PP      PP20395  13.279  11.217   3.102 -0.2322  0.1139  0.0948
10292PP      PP20396   8.834  12.805   2.410  0.0094 -0.0434  0.0973
10293PP      PP20397  14.884  12.626  10.782  0.2042  0.0024 -0.1197
10294PP      PP20398   1.570   9.379   2.136 -0.4062  0.0017  0.0780
10295PP      PP20399   0.983  14.874   3.671  0.0212  0.3294 -0.1665
10296PP      PP20400  13.287   0.418  10.125 -0.3431  0.1465 -0.1581
10297PP      PP20401  10.282   7.995   8.991 -0.2043  0.1485 -0.3857
10298PP      PP20402  10.627  15.526  13.253  0.0773  0.1267 -0.4398
10299PP      PP20403   9.660   4.813   9.870  0.1088 -0.1729 -0.0505
10300PP      PP20404  14.780   4.777  10.511 -0.1895 -0.1937  0.1389
10301PP      PP20405  15.109  12.539  12.023  0.0917  0.1199  0.2934
10302PP      PP20406  14.055   9.169   0.558 -0.0525 -0.2357  0.0362
10303PP      PP20407   6.435  11.348   8.930  0.0837 -0.0987 -0.1576
10304PP      PP20408   4.999  13.491  10.970 -0.2495 -0.0625 -0.2141
10305PP      PP20409   6.984   0.346   1.340  0.0007 -0.0390  0.0897
10306PP      PP20410   3.111   6.965  10.413 -0.0409 -0.0200 -0.0062
10307PP      PP20411   0.120  10.174  11.456  0.2132 -0.2329 -0.1093
10308PP      PP20412   0.750   1.664  12.964  0.2407  0.3675  0.0962
10309PP      PP20413  11.916   4.013  12.729  0.0415  0.2006 -0.0524
10310PP      PP20414   5.920  11.134   3.380  0.1602  0.2406 -0.0802
10311PP      PP20415   0.729  14.520   1.140  0.1508 -0.2491 -0.2116
10312PP      PP20416  10.197   1.910   1.744  0.2328  0.2233 -0.0358
10313PP      PP20417   4.950  10.270   1.856  0.0192  0.0928 -0.0477
10314PP      PP20418  12.240   0.289  12.419  0.1926  0.2207 -0.0887
10315PP      PP20419   5.223  15.712   2.090 -0.0407  0.0895  0.0621
10316PP      PP20420   3.405  11.844  10.020  0.0269  0.2066 -0.0204
10317PP      PP20421   4.636   5.406  10.108  0.0914  0.0120  0.3545
10318PP      PP20422   6.112  12.442  11.862 -0.0633  0.0157 -0.2189
10319PP      PP20423  14.677  10.653  10.696  0.0440  0.0799 -0.0033
10320PP      PP20424   7.841  11.823   8.817 -0.0385  0.0993 -0.1254
10321PP      PP20425   1.116  10.754  12.168 -0.0008  0.3358 -0.1146
10322PP      PP20426  14.353   5.352   4.818  0.2177 -0.1782 -0.2612
10323PP      PP20427   3.199  11.837   3.905  0.1877  0.1070 -0.1184
10324PP      PP20428   2.558  14.229   9.454 -0.1195 -0.0138 -0.2119
10325PP      PP20429  15.035  13.420   0.564  0.1390 -0.2643 -0.0213
10326PP      PP20430   0.697   3.437  12.978  0.2248 -0.4197  0.1825
10327PP      PP20431   4.813  11.598   3.591 -0.0484 -0.0431 -0.0376
10328PP      PP20432  13.574  13.978   2.188 -0.1556 -0.2081 -0.1544
10329PP      PP20433   1.533  12.234   2.745  0.0888  0.1288 -0.0363
10330PP      PP20434  11.847  14.189   9.728 -0.2307  0.2042 -0.1102
10331PP      PP20435   3.821  13.803   3.364  0.0671  0.2404  0.0191
10332PP      PP20436  15.244  13.882  12.650  0.3608 -0.0464 -0.0289
10333PP      PP20437   0.493   1.516   1.530 -0.0699  0.1742  0.0615
10334PP      PP20438   8.479  12.376   9.536  0.0028 -0.1082  0.0649
10335PP      PP20439   9.747   9.972   4.340  0.1054 -0.2347  0.0182
10336PP      PP20440   4.940   2.672   2.589  0.3363 -0.1200  0.1217
10337PP      PP20441   2.980   6.283   2.436 -0.0228 -0.1212  0.3068
10338PP      PP20442  11.102   2.571   3.194  0.1143 -0.2368 -0.1134
10339PP      PP20443  10.735   1.046   9.399 -0.0362  0.1302 -0.0389
10340PP      PP20444  12.495  14.602  10.246 -0.0762 -0.0029 -0.2404
10341PP      PP20445   0.623   0.444   3.105 -0.2056 -0.3994 -0.0153
10342PP      PP20446   9.517   0.667   4.093 -0.0693  0.2221 -0.0458
10343PP      PP20447   9.540   6.753   4.129  0.0330  0.0199 -0.1247
10344PP      PP20448   1.795  15.561   2.443 -0.1947 -0.1637 -0.1012
10345PP      PP20449   1.621   2.797  13.248 -0.1337 -0.2270 -0.0535
10346PP      PP20450  11.896   8.220   8.241  0.0030 -0.0160 -0.1602
10347PP      PP20451   9.118   8.674   0.062 -0.2235  0.2770 -0.2616
10348PP      PP20452   6.482   8.319   2.668 -0.1055  0.0678  0.1148
10349PP      PP20453  11.265   4.319   2.582 -0.0403  0.1357 -0.0320
10350PP      PP20454   0.126   9.846   2.126  0.3546 -0.1002  0.2154
10351PP      PP20455   6.733   1.541  12.867  0.0372 -0.1347  0.2174
10352PP      PP20456   6.586  12.464   9.772 -0.2252 -0.1734  0.0218
10353PP      PP20457   9.062   4.482  10.046 -0.0095  0.2449 -0.2248
10354PP      PP20458   7.570   4.232   1.793 -0.2068 -0.0639 -0.2945
10355PP      PP20459  13.730  13.671   1.702  0.3660  0.3348  0.0596
10356PP      PP20460  11.833  13.271   1.877 -0.1314  0.0618 -0.2313
10357PP      PP20461  13.064  15.582  12.658  0.1231 -0.1035 -0.1330
10358PP      PP20462   9.620   7.048   3.142  0.4242 -0.1071  0.1948
10359PP      PP20463   9.218  11.698   9.114 -0.0248  0.2580 -0.0677
10360PP      PP20464  14.619   1.852  11.376 -0.0538 -0.4483  0.2262
10361PP      PP20465   2.927  14.045  12.829  0.3789  0.0019 -0.1724
10362PP      PP20466   8.878  15.290  11.803  0.0240 -0.3184 -0.0967
10363PP      PP20467  11.880  10.669   2.411  0.0504 -0.0328  0.2094
10364PP      PP20468   2.263   1.489  10.343 -0.0306  0.0174 -0.2148
10365PP      PP20469  14.757  12.252   9.285 -0.2039  0.2440 -0.1619
10366PP      PP20470  13.051  15.796   3.844  0.0993 -0.3125 -0.0837
10367PP      PP20471  14.704   6.581   9.056 -0.0481  0.1448  0.0146
10368PP      PP20472   5.778   1.686   4.441 -0.1977  0.0199 -0.1529
10369PP      PP20473   0.636   2.733  10.318  0.0014  0.0187 -0.0097
10370PP      PP20474   8.131   3.451   8.757  0.2835  0.1921 -0.1492
10371PP      PP20475  10.102  13.767  10.478  0.6544 -0.1388 -0.0028
10372PP      PP20476  10.271   9.488   3.936  0.2680 -0.2244 -0.0224
10373PP      PP20477  14.824  15.444  13.007 -0.3328 -0.1383 -0.3792
10374PP      PP20478   7.817  12.080  12.702 -0.3594 -0.5384 -0.0053
10375PP      PP20479  11.735   0.400   9.105 -0.0346 -0.1534  0.1532
10376PP      PP20480   4.520   6.649  11.748 -0.1500 -0.1021 -0.2402
10377PP      PP20481   2.210   5.030   3.557 -0.0049 -0.0063 -0.0711
10378PP      PP20482  13.462   0.716   2.318 -0.2088  0.1438 -0.0223
10379PP      PP20483  14.420  12.075   1.384 -0.1222  0.0788  0.0862
10380PP      PP20484   8.868   7.662   8.946 -0.2280  0.0179  0.3448
10381PP      PP20485   6.955  13.943   2.536 -0.0679 -0.1526 -0.1512
10382PP      PP20486   7.492  11.202   3.015  0.1346  0.3934  0.3582
10383PP      PP20487   4.519  14.954  10.517  0.1016  0.0607 -0.0764
10384PP      PP20488   7.097   9.255   9.402 -0.2202  0.2117 -0.0187
10385PP      PP20489  11.003  13.430  12.738 -0.0594 -0.1437  0.4137
10386PP      PP20490  14.644  15.490   8.691  0.4805  0.2016 -0.1735
10387PP      PP20491   2.951   7.841   2.585 -0.4438 -0.2295 -0.0462
10388PP      PP20492  12.509   9.721  11.450 -0.1969 -0.1629  0.1360
10389PP      PP20493   8.511   1.271   1.328 -0.0193  0.1005 -0.0604
10390PP      PP20494   7.640  13.199   1.494  0.2329  0.0878  0.0382
10391PP      PP20495   5.396   7.526   3.605 -0.1070  0.2378 -0.1265
10392PP      PP20496  14.546   7.899   9.193 -0.4142 -0.1514  0.3407
10393PP      PP20497   8.558  15.309   1.294 -0.0605  0.1374  0.2044
10394PP      PP20498  12.578   7.754   1.991 -0.2440 -0.3007 -0.0143
10395PP      PP20499  11.707   1.611   0.851  0.1240  0.1613  0.0848
10396PP      PP20500   1.626   3.834  10.551 -0.0775 -0.3510  0.1407
10397PP      PP20501  13.003   0.868   2.769 -0.1814 -0.0210  0.0801
10398PP      PP20502   6.959   1.677  12.406 -0.1060  0.1377 -0.3165
10399PP      PP20503   4.165   2.840   0.160  0.1381  0.1425 -0.0940
10400PP      PP20504   5.142   5.960   4.627 -0.3551  0.1130 -0.1900
10401PP      PP20505   0.845  10.189   2.864 -0.1659 -0.1435  0.1470
10402PP      PP20506  12.726   3.840   1.688  0.0630  0.0998 -0.1194
10403PP      PP20507   4.130  10.803   1.796  0.0791  0.0258 -0.2824
10404PP      PP20508   6.105   1.610   8.875 -0.0512 -0.0680  0.1832
10405PP      PP20509  14.750   0.613   1.590  0.0076 -0.1861 -0.2018
10406PP      PP20510  14.086   5.497   2.010  0.0419  0.0139 -0.1256
10407PP      PP20511   3.675  12.027  10.408 -0.1776  0.0305 -0.0456
10408PP      PP20512   1.339   4.190   1.433 -0.3192  0.0530  0.0789
10409PP      PP20513  10.246   3.806  13.143 -0.1403  0.1039 -0.1783
10410PP      PP20514  15.480   9.358   5.019 -0.0035 -0.0279  0.0155
10411PP      PP20515   8.650   1.695   0.354  0.1027  0.2071 -0.0873
10412PP      PP20516   6.779  12.892   3.160  0.0232  0.1674  0.0276
10413PP      PP20517   3.521   4.506   0.693  0.1193 -0.0150  0.1151
10414PP      PP20518   4.537   5.611   3.713  0.0269 -0.1104 -0.0279
10415PP      PP20519   6.402  12.258   4.054 -0.0265 -0.1722  0.3473
10416PP      PP20520  15.324   7.469  12.103 -0.0187 -0.1538 -0.3860
10417PP      PP20521  12.399   0.184  10.891 -0.3432 -0.4519  0.4385
10418PP      PP20522  11.375   3.640   9.331 -0.0651 -0.0290  0.0463
10419PP      PP20523   5.406   3.885   3.735  0.3737  0.2118 -0.0788
10420PP      PP20524  11.013   3.866   2.531  0.0280 -0.1088 -0.0260
10421PP      PP20525   5.422   9.285   9.833  0.0008 -0.0003 -0.2081
10422PP      PP20526   2.521  11.114   1.841  0.0500  0.0574  0.1486
10423PP      PP20527   5.059  14.550   8.775 -0.3899 -0.1802 -0.0578
10424PP      PP20528  11.799   7.139   0.117 -0.1316 -0.0989  0.0479
10425PP      PP20529  15.524  10.469  11.383 -0.0411 -0.0517 -0.0883
10426PP      PP20530  11.418   2.808   3.884  0.0512  0.2981  0.2222
10427PP      PP20531   6.375   5.131  13.430  0.2932 -0.0098  0.1303
10428PP      PP20532   3.186   4.546  13.413  0.2168 -0.0568 -0.0982
10429PP      PP20533  11.606  15.450   3.857  0.2238  0.0765 -0.1153
10430PP      PP20534   4.296   9.882  13.090  0.2547 -0.3235  0.0600
10431PP      PP20535   3.474   4.106   9.122 -0.1388  0.1904  0.1798
10432PP      PP20536   9.910   6.291  12.107  0.0124  0.1447 -0.3567
10433PP      PP20537   7.850   1.967   1.594  0.0457  0.0361  0.1101
10434PP      PP20538   5.962   9.124   0.772 -0.1716 -0.3098 -0.2277
10435PP      PP20539   9.556   2.496   3.479  0.0472  0.0516 -0.1084
10436PP      PP20540   5.195   2.628   8.410  0.0418 -0.0892 -0.0541
10437PP      PP20541   6.475   3.053   8.774 -0.1136  0.1159  0.2122
10438PP      PP20542  14.327  13.082   0.811  0.2280  0.0336  0.1126
10439PP      PP20543   6.305   1.001   3.224  0.2688 -0.2361  0.3938
10440PP      PP20544   6.652   3.805   9.761 -0.1930  0.0021  0.3788
10441PP      PP20545   2.041   0.298   0.182 -0.3547  0.0845 -0.2013
10442PP      PP20546   4.183   4.307   4.566 -0.2105 -0.0550 -0.2986
10443PP      PP20547   0.652   2.214  12.333  0.0076 -0.0169  0.4729
10444PP      PP20548   8.493  11.343  10.956  0.2163  0.0231  0.1348
10445PP      PP20549  14.765   3.381   9.157 -0.1696 -0.1109 -0.4035
10446PP      PP20550   7.092   5.448  11.385  0.0177  0.2973  0.3374
10447PP      PP20551   6.241  12.349   4.626 -0.0312 -0.0718 -0.0509
10448PP      PP20552  11.678  10.679   3.474  0.0522 -0.4326  0.1491
10449PP      PP20553  13.031   8.810  11.137  0.2531 -0.0306  0.0435
10450PP      PP20554   9.231  13.237   3.543  0.0831  0.0213 -0.2933
10451PP      PP20555   4.077   0.169   0.096  0.0610  0.2001  0.1699
10452PP      PP20556   7.488   0.152  10.163 -0.1313 -0.3402  0.4231
10453PP      PP20557   1.316   6.528  11.409  0.1514  0.0207  0.1557
10454PP      PP20558  11.624  10.108  12.721  0.1081 -0.2494 -0.1694
10455PP      PP20559   2.638  10.138   3.552  0.3606  0.2750 -0.0793
10456PP      PP20560   1.820   9.618  12.288 -0.2129 -0.0732  0.0293
10457PP      PP20561  13.761  10.417   9.872 -0.1827 -0.2429  0.2270
10458PP      PP20562   6.020  15.725   9.962  0.2847  0.0176 -0.0272
10459PP      PP20563  15.293   3.766  10.018 -0.0103  0.0057 -0.2860
10460PP      PP20564   1.860   4.775   0.616 -0.0994  0.5104  0.3440
10461PP      PP20565   5.624  13.982   8.989  0.0044  0.0772  0.3162
10462PP      PP20566   3.350   6.069   2.714  0.1685 -0.2142 -0.5080
10463PP      PP20567  12.364   3.855   9.143  0.1780 -0.0398  0.1525
10464PP      PP20568   0.201  15.271  11.121  0.2907 -0.1330 -0.1451
10465PP      PP20569   2.383  11.557   2.336  0.0445  0.1149 -0.2044
10466PP      PP20570  10.649  12.695   3.332  0.0156  0.2396  0.0852
10467PP      PP20571   9.486  15.261  10.433  0.3512  0.0107 -0.0579
10468PP      PP20572   7.533   6.559   0.758 -0.1746 -0.2301 -0.0146
10469PP      PP20573   8.017   0.016  11.527  0.1286 -0.2527  0.0387
10470PP      PP20574   6.877  12.854  12.222  0.1490  0.2447 -0.4606
10471PP      PP20575   6.337  15.877  11.225 -0.0347 -0.0351 -0.0272
10472PP      PP20576   8.171  15.721   2.400 -0.0109  0.2645  0.2087
10473PP      PP20577   3.049   3.519   0.603  0.0788 -0.2808 -0.1036
10474PP      PP20578  12.376   3.581   8.720 -0.1107 -0.4610  0.0103
10475PP      PP20579   7.339   0.866  13.339  0.2774 -0.1429  0.1648
10476PP      PP20580  11.556   7.025   3.649 -0.0473 -0.1988 -0.2447
10477PP      PP20581   9.231   7.211   1.620  0.0490 -0.0303  0.1006
10478PP      PP20582   4.487  10.639   4.435 -0.5384  0.1088 -0.0314
10479PP      PP20583   6.877  15.110  11.890 -0.0316  0.1817  0.2716
10480PP      PP20584  14.895   8.273   5.024 -0.1315  0.0450 -0.0013
10481PP      PP20585  11.265  11.048  10.829 -0.0525 -0.0462  0.1902
10482PP      PP20586   4.614  13.487   9.522 -0.7261  0.0725  0.1562
10483PP      PP20587   4.804   2.065  12.254  0.3499 -0.1209  0.0482
10484PP      PP20588   0.931   3.473   9.993  0.0161 -0.0707 -0.2238
10485PP      PP20589   1.602  11.400  10.943 -0.1015 -0.1883  0.1047
10486PP      PP20590   9.581  10.632   9.889 -0.0901 -0.2859 -0.0873
10487PP      PP20591  15.655   1.670   0.684  0.0372 -0.1618  0.0497
10488PP      PP20592  13.305   0.078   9.746 -0.2013 -0.0628  0.1747
10489PP      PP20593   0.031  14.598  11.940 -0.1883  0.2535  0.2103
10490PP      PP20594   7.406   5.863  12.072 -0.2566 -0.0876 -0.0572
10491PP      PP20595  14.490   5.868  10.490  0.0776 -0.0884  0.0177
10492PP      PP20596  15.593  12.859  11.849  0.0621 -0.3548 -0.1451
10493PP      PP20597  14.701   5.090   1.177 -0.0041  0.0579 -0.0345
10494PP      PP20598  10.012   6.763   4.077  0.1908 -0.1427  0.1342
10495PP      PP20599   5.086   3.749   0.420 -0.1000 -0.0795 -0.1760
10496PP      PP20600  13.647  10.036   3.397  0.1580 -0.1350 -0.1260
10497PP      PP20601  12.119  13.438   9.054 -0.0280 -0.3393 -0.1573
10498PP      PP20602   7.850   5.664  12.017  0.3062  0.0581  0.2515
10499PP      PP20603  12.521   6.079   0.902  0.1522 -0.2522 -0.1557
10500PP      PP20604   9.328  15.692  10.187 -0.1855 -0.0336 -0.0253
10501PP      PP20605   3.793   3.770   4.694 -0.0689 -0.2510  0.1513
10502PP      PP20606   8.296  12.932  10.402 -0.2264  0.2437 -0.1820
10503PP      PP20607   2.488   5.896   5.081 -0.4979 -0.0394  0.0400
10504PP      PP20608   2.515   9.223   3.515  0.1138 -0.1321 -0.2320
10505PP      PP20609  10.387   9.966   3.431  0.1067  0.0358  0.2664
10506PP      PP20610   9.046  10.643  11.722  0.0605  0.2768 -0.0834
10507PP      PP20611   9.554  11.479   0.959  0.1221 -0.3672  0.0426
10508PP      PP20612   1.405  11.470   9.810 -0.2287 -0.2162  0.1558
10509PP      PP20613   8.700  10.442  12.624 -0.1791  0.1173  0.4105
10510PP      PP20614   8.217   3.784   0.930  0.1390 -0.1402 -0.0431
10511PP      PP20615  11.243   8.739   1.319 -0.2167  0.4644  0.0812
10512PP      PP20616   9.521  14.722   0.430  0.2141 -0.0347 -0.2161
10513PP      PP20617   6.075  11.660   2.120 -0.0342  0.2023 -0.0650
10514PP      PP20618  15.806   7.770  13.087 -0.1135 -0.3171  0.1824
10515PP      PP20619  13.666  13.580   9.724  0.0396 -0.2787  0.3873
10516PP      PP20620  12.755   7.819  10.511 -0.2357 -0.0596 -0.0832
10517PP      PP20621  15.500   6.974   2.212 -0.2366 -0.1744 -0.3552
10518PP      PP20622   4.058   5.306   4.189 -0.1947  0.0165 -0.0451
10519PP      PP20623  14.278   8.139   3.135  0.1953 -0.3528 -0.1761
10520PP      PP20624   4.259   4.364  10.904 -0.0122 -0.0079 -0.3366
10521PP      PP20625   1.643   2.455   1.538  0.2015 -0.0704  0.0749
10522PP      PP20626  10.213   9.872   1.667 -0.2700 -0.1328 -0.2207
10523PP      PP20627   2.353  14.135  12.715  0.3000  0.0740  0.2388
10524PP      PP20628   9.960   3.530   0.321  0.1417  0.0527  0.1719
10525PP      PP20629  14.615  14.865  12.088 -0.0502  0.0367 -0.3312
10526PP      PP20630  13.525   1.972   2.840  0.0772  0.3109  0.3212
10527PP      PP20631  11.215   9.877  10.648 -0.0265 -0.0711  0.2293
10528PP      PP20632   7.850   5.952  13.111 -0.1531 -0.2541 -0.2542
10529PP      PP20633   0.442   6.566   4.244 -0.0267 -0.1870 -0.0242
10530PP      PP20634   8.327   6.114  12.940  0.0115 -0.3592  0.3289
10531PP      PP20635   1.790   1.099  11.398 -0.0864  0.3041 -0.2351
10532PP      PP20636  12.306   5.723   1.478  0.1400 -0.0426  0.0945
10533PP      PP20637   1.096   5.341  12.367 -0.2014 -0.0551  0.0268
10534PP      PP20638  15.773  14.920   2.075 -0.1580  0.0117  0.0848
10535PP      PP20639   4.673   2.847  10.780  0.0980  0.1805  0.0543
10536PP      PP20640   3.994   2.915   4.147  0.0520 -0.2044  0.1800
10537PP      PP20641   7.370   6.330   9.646  0.1684 -0.0066  0.0992
10538PP      PP20642   2.339   4.949  11.174 -0.0811 -0.0402 -0.0692
10539PP      PP20643   0.151   7.438  12.616 -0.0646  0.1104 -0.3539
10540PP      PP20644   2.232   6.416  12.402 -0.1196  0.0912 -0.1400
10541PP      PP20645   8.373   7.197   1.231  0.0834  0.0565  0.0386
10542PP      PP20646   1.159   9.962  12.832  0.0825 -0.0252 -0.0123
10543PP      PP20647   4.110  13.441   4.600 -0.1778  0.0737  0.0091
10544PP      PP20648  10.179  13.594   0.487  0.3971 -0.0611 -0.0098
10545PP      PP20649   9.688  10.334   3.398 -0.0222 -0.0575 -0.1375
10546PP      PP20650   1.293  10.201   4.365 -0.1849 -0.1022  0.2103
10547PP      PP20651  13.738  15.294   3.724 -0.0046  0.1926 -0.0376
10548PP      PP20652  14.994   8.755  11.744 -0.2262 -0.1949 -0.0689
10549PP      PP20653   7.953  11.554   8.283 -0.2574  0.1747 -0.4902
10550PP      PP20654   1.263   0.595  12.949 -0.1483 -0.1923 -0.2308
10551PP      PP20655  13.616   9.762   2.045  0.1620  0.3780  0.1197
10552PP      PP20656  13.087   6.223  10.251 -0.0510  0.0215 -0.0303
10553PP      PP20657   9.285  11.614   1.736 -0.1681 -0.0744  0.1002
10554PP      PP20658   1.539  12.858   9.569 -0.0522  0.0753 -0.1620
10555PP      PP20659   0.533   6.429   1.794 -0.1352 -0.0582 -0.2626
10556PP      PP20660  13.083  10.752   2.900 -0.0722  0.2577 -0.0403
10557PP      PP20661   6.069   3.488   2.611  0.0939 -0.2497 -0.5474
10558PP      PP20662   4.307  11.315   0.368 -0.0956 -0.1799  0.1364
10559PP      PP20663  10.335  14.999   9.811  0.0318  0.0953 -0.3076
10560PP      PP20664   9.605  11.026   1.755 -0.2473  0.0137  0.1816
10561PP      PP20665   4.394  10.291   1.726  0.2113  0.2936 -0.0152
10562PP      PP20666   4.033   7.639   3.456 -0.1409 -0.2384  0.0315
10563PP      PP20667  13.560   3.517   9.215 -0.2351 -0.1360  0.1994
10564PP      PP20668   3.366   3.280   0.276 -0.2225 -0.0648  0.2166
10565PP      PP20669   4.078   4.893   3.166 -0.0587  0.1843  0.0955
10566PP      PP20670   8.471   9.912   8.155 -0.2549  0.2541 -0.2306
10567PP      PP20671   3.264   7.045   3.702 -0.0153  0.0219  0.3528
10568PP      PP20672   5.080  11.650  11.606 -0.2068 -0.2298  0.1039
10569PP      PP20673  12.441   3.053   9.416 -0.4313 -0.0542 -0.0451
10570PP      PP20674   6.489   1.145  11.869  0.0013  0.4298  0.1272
10571PP      PP20675   7.745  13.380   4.212 -0.0794  0.2331  0.1130
10572PP      PP20676   2.020   0.739  11.736  0.1046  0.0603  0.2334
10573PP      PP20677   4.312  11.974   2.699  0.0629 -0.2186  0.2955
10574PP      PP20678   7.923   6.116   3.359 -0.1376  0.2285  0.0075
10575PP      PP20679   3.183  14.278  11.361  0.1119  0.1553  0.0920
10576PP      PP20680   1.242  12.357   3.709 -0.1682  0.1188 -0.2555
10577PP      PP20681   7.642  12.791   0.478  0.1771 -0.0356 -0.1330
10578PP      PP20682   8.854  13.018  12.437 -0.0887  0.2963  0.1386
10579PP      PP20683  12.644   5.719   2.363 -0.1363  0.1049 -0.0373
10580PP      PP20684   2.806   1.178   0.672  0.2427 -0.4835  0.2072
10581PP      PP20685   5.265  11.564  12.424  0.0119 -0.1479  0.0484
10582PP      PP20686  11.804  12.979   0.275 -0.0074  0.3174  0.0008
10583PP      PP20687   3.320   9.109  12.571  0.1867  0.2585  0.1370
10584PP      PP20688   3.986   4.113  10.571  0.0098  0.1495  0.0974
10585PP      PP20689   5.581   7.245   2.635  0.1261 -0.1588  0.1717
10586PP      PP20690  14.659   0.965  10.331 -0.2154 -0.1686  0.1484
10587PP      PP20691  10.590   6.839  10.702 -0.1551 -0.1535 -0.1121
10588PP      PP20692   7.945   6.874   0.464  0.4423  0.1146  0.0251
10589PP      PP20693   0.357   9.825   1.311  0.5032  0.0409  0.0514
10590PP      PP20694  12.931   8.626  11.640  0.0337  0.0898 -0.0505
10591PP      PP20695   4.637   2.538  12.288 -0.2290  0.0323 -0.0897
10592PP      PP20696  11.322  15.086   3.599  0.3326  0.3976  0.0689
10593PP      PP20697   3.294  10.216   9.527  0.0481  0.2061  0.1008
10594PP      PP20698   1.823   3.083  11.750 -0.0876  0.1956  0.0398
10595PP      PP20699   4.791   1.284  13.323 -0.0180  0.0129 -0.0914
10596PP      PP20700   9.816  13.488  10.866  0.1504 -0.0481 -0.1578
10597PP      PP20701  14.124   8.548   0.674 -0.1347 -0.1635  0.0820
10598PP      PP20702   5.086   0.158  10.061  0.0134 -0.1742 -0.2977
10599PP      PP20703   0.852  10.187   4.187 -0.1473  0.0681  0.0144
10600PP      PP20704   2.295  13.184   0.275 -0.0558  0.2141 -0.2131
10601PP      PP20705   8.257  14.447   0.004  0.0216  0.0570 -0.0046
10602PP      PP20706   3.696  14.321   2.803 -0.0374 -0.0333 -0.2044
10603PP      PP20707   9.861   3.483   3.055 -0.0878  0.2144  0.1853
10604PP      PP20708  13.017  11.605   2.770 -0.0131  0.0163  0.0943
10605PP      PP20709  14.505  14.361   2.798 -0.1934  0.1551  0.0864
10606PP      PP20710   8.594   4.090   0.676  0.1578  0.3127 -0.3183
10607PP      PP20711   6.002   6.124   0.995  0.0731  0.0038 -0.0509
10608PP      PP20712   7.907   3.128   9.836 -0.5526 -0.4276  0.0256
10609PP      PP20713   9.041  12.730   0.233  0.3164  0.4389 -0.0197
10610PP      PP20714   8.709  12.660  12.722 -0.1820  0.0905  0.1059
10611PP      PP20715   1.841   6.761   3.789  0.0924 -0.1665 -0.0275
10612PP      PP20716   2.701  11.248  10.045 -0.4785  0.0763  0.1585
10613PP      PP20717   1.320  10.743   2.128 -0.1441  0.0459  0.0716
10614PP      PP20718  15.436   5.377  12.888  0.1772  0.1393  0.0466
10615PP      PP20719   1.514   5.239  10.153 -0.2155 -0.4256 -0.1204
10616PP      PP20720   6.265   2.480  11.306  0.0066 -0.0798 -0.2867
10617PP      PP20721   0.683   5.969   2.793  0.0230 -0.1040  0.1564
10618PP      PP20722   5.730   0.128   3.197  0.1239 -0.1091 -0.0965
10619PP      PP20723   0.822  11.392  11.970  0.1034  0.3385 -0.1638
10620PP      PP20724   0.426  13.478  12.944  0.2956  0.0705 -0.3982
10621PP      PP20725  15.472   3.342   2.111 -0.0528 -0.1888 -0.0121
10622PP      PP20726   8.171   0.551   9.987  0.1386  0.3356 -0.1602
10623PP      PP20727   0.356   5.871   1.706  0.0787  0.2003 -0.0654
10624PP      PP20728   3.567   6.468   4.916  0.1170 -0.0189  0.3064
10625PP      PP20729  12.098  14.211   2.744  0.1000 -0.1782  0.3383
10626PP      PP20730   6.310   9.163   9.907 -0.1344  0.1271 -0.2053
10627PP      PP20731  10.485   3.828  12.643  0.0872 -0.1602  0.2154
10628PP      PP20732   7.377   1.520   4.196 -0.1114  0.1279 -0.1945
10629PP      PP20733  13.776   7.540   0.008  0.4497  0.1346  0.1360
10630PP      PP20734  15.662   5.129   0.259  0.1194 -0.1326  0.0148
10631PP      PP20735   0.886   9.796   3.788 -0.1276  0.2349  0.3345
10632PP      PP20736   4.523  13.423   1.407 -0.2659  0.2681  0.2710
10633PP      PP20737   4.289  15.014   9.262  0.0232  0.0013  0.0342
10634PP      PP20738  12.708  11.196  11.629 -0.0728 -0.0006  0.1758
10635PP      PP20739   6.203  11.699  13.232 -0.1216  0.2257  0.0232
10636PP      PP20740   3.579  14.783   1.874  0.2686 -0.1768 -0.0998
10637PP      PP20741  10.047   9.123  13.028  0.1369 -0.0103 -0.0196
10638PP      PP20742  11.492  10.368   8.771  0.1480 -0.1586 -0.1005
10639PP      PP20743   5.908  11.941   3.728  0.2437 -0.0007 -0.0956
10640PP      PP20744   0.840   5.496   4.397  0.1075  0.3369 -0.0465
10641PP      PP20745  11.390   3.307   4.848 -0.2061  0.0093  0.0511
10642PP      PP20746  14.547  15.517   0.742 -0.2721  0.1046  0.0320
10643PP      PP20747  12.388   7.277  10.474 -0.1826  0.5697 -0.0579
10644PP      PP20748   3.853   8.166   0.641  0.1195  0.1265  0.1984
10645PP      PP20749   6.492  13.171   3.649 -0.2196  0.1952 -0.2257
10646PP      PP20750  14.387   3.576   1.597 -0.1902 -0.1958 -0.1176
10647PP      PP20751   1.256   9.124   3.491  0.1462  0.4252 -0.0442
10648PP      PP20752  10.721   2.370   4.066  0.0505 -0.0802 -0.1400
10649PP      PP20753  14.176   1.049  13.099 -0.1708 -0.2652 -0.1608
10650PP      PP20754  15.113   5.203  12.439  0.3112 -0.0951 -0.0313
10651PP      PP20755   9.160   6.939  11.276  0.0663  0.2943  0.0182
10652PP      PP20756  14.391   8.092   9.643  0.2085  0.0451  0.1703
10653PP      PP20757   4.970  13.137   9.459 -0.0484  0.0672 -0.2346
10654PP      PP20758  12.887   3.644   4.077  0.3223  0.0376  0.0338
10655PP      PP20759  15.877   3.117   2.263  0.1406  0.0245  0.1987
10656PP      PP20760  15.380   5.213   9.675 -0.3245  0.1012 -0.1060
10657PP      PP20761  15.242   0.880   0.707 -0.2117 -0.1434 -0.1494
10658PP      PP20762   0.953   1.800  12.188 -0.1632  0.3287 -0.1426
10659PP      PP20763  13.642  13.205   0.376  0.0361  0.1565  0.4784
10660PP      PP20764   9.543   9.414  12.820  0.2432 -0.2662  0.0088
10661PP      PP20765   0.069  14.994   0.645 -0.0955  0.0784  0.0469
10662PP      PP20766   8.140   5.345   1.936  0.0856 -0.1612  0.0559
10663PP      PP20767   2.895  11.536  12.879 -0.2012 -0.1156  0.1307
10664PP      PP20768  11.748   4.844  13.117  0.1182 -0.2994  0.1817
10665PP      PP20769   4.942  10.256   3.943  0.2267  0.0243 -0.1219
10666PP      PP20770   3.157   5.383   9.584 -0.2735  0.2363  0.0926
10667PP      PP20771  11.034   9.017  12.432 -0.1040 -0.2086  0.0225
10668PP      PP20772  13.298   8.909  12.496 -0.2372 -0.1191 -0.3072
10669PP      PP20773   8.831   4.834   8.943 -0.0064  0.0025 -0.3915
10670PP      PP20774  14.673   5.473   8.926  0.0699  0.1079 -0.1975
10671PP      PP20775  14.087   4.193   9.470  0.0631  0.0059 -0.0923
10672PP      PP20776   0.456   1.232  10.448 -0.2622 -0.1702 -0.1357
10673PP      PP20777   3.056  13.841  11.152  0.2203  0.2654  0.1502
10674PP      PP20778   8.497   3.370   9.116 -0.0806  0.0464  0.0605
10675PP      PP20779   6.687  10.225   1.297  0.1014 -0.1483 -0.3094
10676PP      PP20780   6.921  14.835   8.820 -0.1835  0.1367  0.1432
10677PP      PP20781  12.401   7.073   4.274 -0.0707 -0.0821 -0.2958
10678PP      PP20782   9.373   1.043   2.836  0.3136 -0.3812 -0.0609
10679PP      PP20783  12.078   1.247   1.505 -0.0403  0.3255  0.3209
10680PP      PP20784   2.392   9.384   2.300 -0.2117 -0.1798  0.3228
10681PP      PP20785   9.379   6.426   2.256 -0.0737  0.1930 -0.1129
10682PP      PP20786  14.040  15.435   4.175  0.3882 -0.1888  0.2860
10683PP      PP20787   3.492   2.384  10.028 -0.1288  0.2194  0.1965
10684PP      PP20788   5.407   4.994   2.841  0.0704  0.1586  0.0909
10685PP      PP20789   9.598   8.055   1.136 -0.0949  0.1963  0.2540
10686PP      PP20790  13.520   8.227   4.556  0.2071  0.1203  0.0283
10687PP      PP20791   6.028   9.458   9.629 -0.3067 -0.0986 -0.1944
10688PP      PP20792   6.668   6.098   1.711 -0.3674  0.1168  0.3832
10689PP      PP20793  11.498   9.624   2.333  0.0587 -0.1737  0.0225
10690PP      PP20794  10.346  14.524   9.071  0.2900  0.0516  0.1460
10691PP      PP20795   1.629   8.015   3.002 -0.3605  0.0272 -0.1838
10692PP      PP20796   0.903   8.276   5.068  0.3007 -0.2161 -0.2501
10693PP      PP20797  15.128   5.208   4.748 -0.0899 -0.0129 -0.0111
10694PP      PP20798   9.061   9.250  11.299  0.1314  0.0573 -0.0527
10695PP      PP20799   4.582   3.103  12.240  0.2489  0.0919  0.2660
10696PP      PP20800   7.163   6.540  12.320  0.2770  0.0331 -0.0426
10697PP      PP20801   5.186   2.486  12.053 -0.1112  0.3743 -0.3691
10698PP      PP20802  13.336  13.958   9.562 -0.3739  0.0460 -0.1205
10699PP      PP20803   5.061   5.993  12.147  0.1732  0.0407  0.0974
10700PP      PP20804   2.447   1.918   9.896 -0.2433  0.2348 -0.1305
10701PP      PP20805   1.673  11.652   3.294  0.1009 -0.2293  0.3319
10702PP      PP20806   1.214  10.682   2.663 -0.1124  0.1490 -0.0546
10703PP      PP20807  12.432   3.940  12.271  0.0624 -0.3259 -0.1045
10704PP      PP20808   8.892   8.293  10.198 -0.3635  0.1830  0.1319
10705PP      PP20809   1.939  10.695  11.535 -0.2144  0.0412  0.0109
10706PP      PP20810   6.837   3.418   3.034  0.3517  0.4123  0.1498
10707PP      PP20811  13.357   6.148   9.193  0.6879  0.0721  0.0690
10708PP      PP20812   0.264   9.163  12.973  0.2719 -0.0978 -0.1482
10709PP      PP20813  14.928  10.323   3.208 -0.4080  0.0959 -0.1589
10710PP      PP20814  10.180   1.656  11.908  0.1335 -0.3637 -0.3595
10711PP      PP20815   9.709   1.674  12.113  0.1502  0.1005  0.1256
10712PP      PP20816   7.016  10.299   2.775  0.1981  0.2448 -0.1110
10713PP      PP20817   4.304   3.634   3.573  0.1393 -0.2485  0.1159
10714PP      PP20818  10.168   6.537  11.615 -0.1378 -0.0085  0.0904
10715PP      PP20819   9.750   8.067   1.685  0.0543  0.0084 -0.2031
10716PP      PP20820   2.214   7.787   5.062  0.2789  0.2692 -0.1221
10717PP      PP20821   4.273   8.415   1.812  0.1948 -0.2608  0.0969
10718PP      PP20822   9.853   8.471   2.036 -0.3376  0.0219 -0.1705
10719PP      PP20823   1.777   7.804  11.179  0.3701  0.2542 -0.1384
10720PP      PP20824  15.239  15.693  10.695  0.0179 -0.0722 -0.0995
10721PP      PP20825   6.223   6.899  13.231 -0.1163  0.0543 -0.1269
10722PP      PP20826   4.345   1.882   2.028  0.1041 -0.0230  0.0395
10723PP      PP20827   1.469   3.303   3.117 -0.1278 -0.1906  0.0306
10724PP      PP20828   0.835   4.616   9.522 -0.1669  0.1544 -0.1270
10725PP      PP20829  15.551   3.198  10.585  0.1705 -0.1086 -0.2885
10726PP      PP20830  14.234   4.359  11.995  0.0334 -0.2129 -0.0538
10727PP      PP20831  14.694   8.280   9.985  0.0606  0.2050 -0.0216
10728PP      PP20832   4.052  12.090  11.907 -0.0034 -0.1861  0.2008
10729PP      PP20833   1.478   8.413   2.762  0.1137  0.1061 -0.2707
10730PP      PP20834   3.123   6.472  10.645  0.2473 -0.0413  0.0694
10731PP      PP20835   3.045  10.291  10.006  0.2012  0.0844 -0.1158
10732PP      PP20836  14.462  12.944   8.977 -0.4170 -0.0698  0.2226
10733PP      PP20837   5.607  11.721   9.744 -0.0486 -0.0200 -0.2216
10734PP      PP20838  13.397  10.537  10.450  0.2449 -0.1425 -0.0399
10735PP      PP20839  13.504  14.689   8.875 -0.0497 -0.0085  0.2791
10736PP      PP20840  13.330  15.201  12.845  0.0978 -0.2763 -0.2298
10737PP      PP20841  13.128   3.466  11.036  0.2355 -0.2169 -0.1113
10738PP      PP20842   1.036   2.489   3.453  0.0098 -0.1853 -0.0864
10739PP      PP20843   3.066  12.133   0.046  0.1173 -0.0121 -0.0946
10740PP      PP20844  10.325   1.990   3.283 -0.1545 -0.0401  0.4351
10741PP      PP20845   6.385   1.509   3.516 -0.2901 -0.0492  0.0525
10742PP      PP20846   9.959   8.039  11.744  0.1036 -0.0627  0.0750
10743PP      PP20847   7.152   3.407   8.587 -0.1281  0.0774 -0.1555
10744PP      PP20848  10.796   4.226  10.738  0.0077  0.0234 -0.2611
10745PP      PP20849   1.566  11.968   1.986 -0.1348  0.0276  0.1162
10746PP      PP20850   2.757   1.051  13.294 -0.1912  0.2526 -0.1767
10747PP      PP20851   2.496   1.202   0.217 -0.1066  0.0060  0.0644
10748PP      PP20852   1.844   6.949  13.169 -0.0320  0.3601  0.1067
10749PP      PP20853  12.806   6.632  10.428  0.1822 -0.0518  0.1975
10750PP      PP20854   9.289   9.988  10.771 -0.0675  0.0137 -0.0675
10751PP      PP20855   7.594   1.081  11.003 -0.1399 -0.2369 -0.0803
10752PP      PP20856   3.776  12.998  11.884 -0.1102  0.1705  0.4138
10753PP      PP20857   2.722  13.062   1.550 -0.1105 -0.1885 -0.2952
10754PP      PP20858   3.743  14.421   2.197 -0.1646 -0.1622  0.0182
10755PP      PP20859  15.483   6.037   4.948  0.2292 -0.3224 -0.4668
10756PP      PP20860   2.635   6.232  10.326 -0.0536  0.1718 -0.1172
10757PP      PP20861  12.894  10.045  12.049 -0.0965  0.0649  0.0207
10758PP      PP20862   1.163   6.448   1.830  0.2975  0.0469 -0.0045
10759PP      PP20863   3.700   6.542   3.996  0.0026 -0.2072  0.4405
10760PP      PP20864   4.356   6.888   4.561 -0.0414  0.1206  0.2119
10761PP      PP20865  15.567  14.539   8.666 -0.2146 -0.4603 -0.1137
10762PP      PP20866   3.712   1.785   1.784  0.0693 -0.0968  0.0421
10763PP      PP20867  12.710  13.770  11.879 -0.0615  0.1374 -0.0181
10764PP      PP20868   9.957   9.228   9.737  0.0184  0.1220 -0.0297
10765PP      PP20869   6.080  13.591   0.061  0.0674 -0.1191  0.0613
10766PP      PP20870   8.300   0.785   9.119  0.1403 -0.0302 -0.1983
10767PP      PP20871   9.585  13.363   1.854  0.2457 -0.3253  0.0099
10768PP      PP20872   5.761   7.595  12.762 -0.0550  0.2937  0.0265
10769PP      PP20873  15.349  11.923   0.264 -0.0000  0.3027 -0.3782
10770PP      PP20874   0.320   8.112   2.414 -0.0608  0.2192 -0.3411
10771PP      PP20875   3.515   1.397   8.927  0.2038 -0.2437 -0.0752
10772PP      PP20876  14.563   1.397   0.320 -0.0536  0.3998 -0.1495
10773PP      PP20877  12.918   1.742   0.910 -0.3155 -0.0917  0.2815
10774PP      PP20878   6.607  11.448   2.895  0.2851  0.2046  0.1100
10775PP      PP20879   2.021   9.613   9.940 -0.0554  0.0319 -0.3481
10776PP      PP20880  10.283  14.554  11.085  0.0185 -0.1442  0.0999
10777PP      PP20881   3.647   1.231   1.667  0.0934  0.1401 -0.0844
10778PP      PP20882   7.007  12.725   4.168 -0.1240  0.0027 -0.1888
10779PP      PP20883   4.779  15.157   4.937  0.1880  0.0950 -0.0806
10780PP      PP20884   7.670   8.249  13.413 -0.0264  0.3047  0.0115
10781PP      PP20885   1.601  10.885   9.409  0.1292  0.2508  0.2868
10782PP      PP20886   1.163   3.082   0.558 -0.0909  0.0135 -0.0071
10783PP      PP20887   7.956   0.559   4.027 -0.2453 -0.1199 -0.0822
10784PP      PP20888  15.322  12.638   1.419 -0.1633  0.0360  0.2365
10785PP      PP20889   2.450  14.660   1.130  0.2401 -0.2747 -0.1141
10786PP      PP20890   1.675   0.571  12.194  0.1963 -0.4177  0.2057
10787PP      PP20891   7.310   6.829  11.369 -0.2715  0.2105  0.4443
10788PP      PP20892   5.924  14.361   0.752  0.2240  0.0574  0.1345
10789PP      PP20893   2.616  12.179   0.186 -0.2322  0.2843 -0.0579
10790PP      PP20894   9.055   7.931   3.004 -0.2054 -0.0322  0.0216
10791PP      PP20895  11.356  12.633   9.080 -0.2726  0.2727  0.1961
10792PP      PP20896  15.659   7.992   2.379 -0.0442 -0.1079 -0.0809
10793PP      PP20897   7.010   5.615   9.248  0.6119  0.1391 -0.1724
10794PP      PP20898   0.667   1.470   9.471  0.1806 -0.1117  0.1418
10795PP      PP20899   5.559  14.921   9.567 -0.0924  0.0983 -0.0114
10796PP      PP20900   7.085  10.269   4.408  0.0742  0.0261  0.0064
10797PP      PP20901   0.079  12.758   8.810  0.0123 -0.0716  0.0188
10798PP      PP20902   3.187   1.261   9.788 -0.3107 -0.0898 -0.1780
10799PP      PP20903   6.557   0.646   0.477  0.0067  0.2005 -0.2736
10800PP      PP20904   3.595   2.459  12.873 -0.1652 -0.3743 -0.0225
10801PP      PP20905   2.090   7.330  10.623 -0.0038  0.3205  0.0628
10802PP      PP20906   5.669   2.815   0.492 -0.0865  0.2433  0.1215
10803PP      PP20907   1.611  11.131  11.618 -0.1869  0.3520  0.0622
10804PP      PP20908  13.887  11.983   8.959 -0.3068 -0.1115 -0.1430
10805PP      PP20909   3.967  10.142  10.711 -0.2743  0.2525  0.0202
10806PP      PP20910   2.433   8.351   9.740  0.1202  0.1169  0.1314
10807PP      PP20911   5.009   9.782   3.648  0.1697  0.1196 -0.0569
10808PP      PP20912  15.573   5.284   2.146  0.1473 -0.0610 -0.2332
10809PP      PP20913  13.425   3.457  11.478 -0.1844 -0.4789 -0.0062
10810PP      PP20914   7.625   6.703   4.110  0.0700  0.1000 -0.2338
10811PP      PP20915  14.494   8.926  10.773  0.0519 -0.1115 -0.1104
10812PP      PP20916   3.945  10.759   4.634 -0.0898  0.0237 -0.3369
10813PP      PP20917  11.896   9.128   0.795  0.1516  0.2893  0.4087
10814PP      PP20918  12.019   0.639  13.378 -0.1129 -0.0781  0.3372
10815PP      PP20919   0.869   8.164  13.165 -0.0139 -0.1385  0.3991
10816PP      PP20920  12.986   9.230   0.060 -0.0330  0.1776  0.1198
10817PP      PP20921  12.649   4.143   2.784 -0.2949 -0.5259  0.2136
10818PP      PP20922  12.473   2.046   1.875  0.1626  0.0047  0.1772
10819PP      PP20923   6.920   2.951   8.569  0.1948 -0.0706  0.3104
10820PP      PP20924   8.452   4.137   3.871  0.3211  0.0858 -0.0608
10821PP      PP20925   4.865   7.561   2.961 -0.1521 -0.0588 -0.1680
10822PP      PP20926  13.018  15.242   0.299 -0.0510 -0.3077 -0.1977
10823PP      PP20927  11.752   1.086  12.931  0.2495 -0.2295  0.2084
10824PP      PP20928  14.952   0.115  10.163 -0.2120  0.0778  0.1176
10825PP      PP20929  13.502  12.632   2.790  0.1217  0.1273 -0.0321
10826PP      PP20930   0.548   5.405   3.521 -0.2111 -0.2637  0.0867
10827PP      PP20931  12.335  15.080  10.188  0.1513  0.0520 -0.2198
10828PP      PP20932   8.002   9.479   4.482 -0.2184  0.2449 -0.0880
10829PP      PP20933   2.297   2.999   9.879 -0.0901  0.0831  0.1097
10830PP      PP20934   6.395   9.232  10.740  0.0638 -0.3819 -0.1444
10831PP      PP20935   1.265  11.945   0.174 -0.1971  0.2800 -0.3608
10832PP      PP20936  10.407   4.535   0.857 -0.0867  0.1114 -0.1692
10833PP      PP20937   2.642  11.926  11.576 -0.0121  0.1064 -0.2359
10834PP      PP20938  15.653   9.701   2.494 -0.3497 -0.1333  0.6227
10835PP      PP20939  11.578   2.194  10.407  0.3476 -0.1817  0.1049
10836PP      PP20940  11.818  11.994   8.356  0.2931  0.2820 -0.0027
10837PP      PP20941   1.202   7.001   4.063 -0.3331 -0.3035  0.2257
10838PP      PP20942   4.408   0.200   9.151  0.0817  0.1380 -0.2597
10839PP      PP20943   4.739   2.872   9.451  0.0890 -0.1162 -0.0997
10840PP      PP20944   2.378   0.625   1.738 -0.0528  0.3098  0.1521
10841PP      PP20945   3.224   4.626  10.984  0.2820 -0.0075  0.0943
10842PP      PP20946  13.805   5.777   8.894  0.1492  0.0225 -0.1923
10843PP      PP20947  11.499   6.291   9.665 -0.2104 -0.2209  0.0911
10844PP      PP20948   1.874  11.563   2.245 -0.1911  0.0137 -0.1265
10845PP      PP20949  13.089   0.335   2.085  0.2686 -0.2035  0.1880
10846PP      PP20950  15.403   3.594   9.239 -0.1630 -0.2641  0.0881
10847PP      PP20951   0.772  12.741  11.770  0.1564  0.0793 -0.0341
10848PP      PP20952  12.908   6.432   1.600 -0.2351  0.1249  0.0660
10849PP      PP20953  12.978  11.543   1.456  0.1494 -0.1597  0.0866
10850PP      PP20954   1.096   4.584   3.524  0.1651  0.1211 -0.2843
10851PP      PP20955   0.604   6.336  13.245  0.1742 -0.1002  0.0714
10852PP      PP20956   1.094   9.763   9.550  0.1073  0.2877  0.1023
10853PP      PP20957   4.390  12.549  10.661  0.0412  0.0994  0.1115
10854PP      PP20958   5.940   9.016   1.260  0.1827  0.2381 -0.3935
10855PP      PP20959   2.435   2.572  12.616  0.3260 -0.1122  0.0424
10856PP      PP20960   7.021   1.047   9.607 -0.2110 -0.2657 -0.2891
10857PP      PP20961   9.923   1.539   3.549  0.3605 -0.0972  0.2414
10858PP      PP20962   1.918   2.591   0.818 -0.0745  0.1634  0.1757
10859PP      PP20963   3.583   9.100   2.778  0.0277  0.0468 -0.1740
10860PP      PP20964   6.233   5.397   2.627 -0.0321 -0.3014 -0.0646
10861PP      PP20965   6.510   7.416   2.869  0.5121  0.1479 -0.0356
10862PP      PP20966   8.065   4.103   1.517 -0.1371  0.1550  0.2289
10863PP      PP20967  14.656   2.540   2.563 -0.3691 -0.0064  0.0337
10864PP      PP20968  12.870   1.198  12.193 -0.4098 -0.0206  0.0111
10865PP      PP20969  10.292   4.912  11.983 -0.1717 -0.0437 -0.2101
10866PP      PP20970   1.638  12.075   3.651 -0.0830 -0.3104  0.1050
10867PP      PP20971   4.835   5.623   9.642  0.0548  0.1230 -0.0013
10868PP      PP20972   1.122   3.734  10.519  0.2293 -0.0840 -0.3724
10869PP      PP20973   9.835   5.648   2.505 -0.0021  0.2387 -0.0551
10870PP      PP20974   0.557   4.516   3.469 -0.0384 -0.3090  0.0677
10871PP      PP20975  11.763   4.049   1.931  0.1575  0.1625 -0.0983
10872PP      PP20976  11.980  14.880  11.964  0.0933 -0.1325 -0.2225
10873PP      PP20977  14.824   5.164   0.020 -0.0661 -0.0317 -0.1639
10874PP      PP20978   4.774  13.603   4.312  0.1044 -0.2017 -0.0673
10875PP      PP20979   2.949   4.838   0.766  0.0021 -0.0253 -0.0983
10876PP      PP20980  10.142   4.593   3.656  0.0711 -0.0570 -0.0375
10877PP      PP20981   5.832   8.458   3.411  0.2539  0.2582  0.0739
10878PP      PP20982  15.160  15.825  12.645 -0.2786 -0.1194 -0.1137
10879PP      PP20983  15.796  12.028   0.516 -0.0296  0.0483  0.0826
10880PP      PP20984  15.016   1.753  13.263 -0.3011 -0.0642  0.2240
10881PP      PP20985   0.709   7.841   4.783 -0.2251  0.0893 -0.1148
10882PP      PP20986   8.022  13.916  12.998 -0.1263 -0.1062  0.2181
10883PP      PP20987   4.524   5.443  12.465 -0.0445 -0.4868  0.0009
10884PP      PP20988   3.359   0.482   2.897  0.2541 -0.0041 -0.1290
10885PP      PP20989   1.836  10.565   9.733  0.1423  0.1167  0.1653
10886PP      PP20990   7.698  10.261   2.105 -0.0842  0.1258  0.0180
10887PP      PP20991  12.243  15.796   0.637  0.0645 -0.1029  0.0555
10888PP      PP20992   8.971  12.047  12.118  0.5708  0.1833  0.0538
10889PP      PP20993  14.295  11.250  12.724 -0.0910 -0.0883  0.1760
10890PP      PP20994   5.671   8.536   0.150  0.0851 -0.2423  0.1255
10891PP      PP20995   8.847  12.001   0.783 -0.3387 -0.1322  0.0116
10892PP      PP20996  13.866   5.371   3.035  0.1359 -0.1320  0.2709
10893PP      PP20997   7.446   7.076   0.708 -0.2745  0.3177 -0.2942
10894PP      PP20998   0.971   1.577   1.634  0.1815 -0.1863  0.0178
10895PP      PP20999   6.213   2.044  12.176 -0.0676 -0.0662 -0.2929
10896PP      PP21000  13.717   6.131   0.996  0.2643  0.1368 -0.2794
10897PP      PP21001  11.899   7.782   9.363 -0.3542 -0.0862 -0.0755
10898PP      PP21002   5.631  12.058  13.070  0.0737 -0.0254 -0.0145
10899PP      PP21003   5.353   6.025   0.401 -0.2779  0.0200  0.0599
10900PP      PP21004  12.098   0.191  11.383  0.0155  0.1745  0.2010
10901PP      PP21005   0.590  15.296  11.597 -0.4740 -0.0463 -0.2860
10902PP      PP21006   2.744  10.683  12.296  0.0302  0.3285  0.0503
10903PP      PP21007   6.348   2.896   8.327 -0.0626 -0.0993  0.1642
10904PP      PP21008  13.405  15.126  13.434 -0.0454  0.0608 -0.0527
10905PP      PP21009   2.266   9.646   4.429 -0.0902  0.2034  0.1514
10906PP      PP21010   8.099   7.694  10.329  0.4235 -0.1431 -0.1511
10907PP      PP21011  11.407   6.952   2.014  0.1102  0.3097 -0.1767
10908PP      PP21012   9.395  14.740   9.193  0.0701 -0.1099  0.1199
10909PP      PP21013  13.911  15.764  10.487 -0.4271  0.1726  0.2282
10910PP      PP21014   2.009   3.098   0.914 -0.0500  0.0359 -0.2276
10911PP      PP21015   8.920   5.883  11.217  0.3497 -0.1022  0.0099
10912PP      PP21016  11.043  12.854  10.445  0.1766  0.0887 -0.4721
10913PP      PP21017  14.457   5.359  10.535 -0.0182 -0.1560  0.0562
10914PP      PP21018   0.431   6.307  10.252  0.3867  0.1641 -0.1038
10915PP      PP21019  12.732  14.898   9.844 -0.0326  0.0590 -0.3971
10916PP      PP21020   3.516  13.959   2.473 -0.1066  0.1516  0.0883
10917PP      PP21021  10.835   0.882  12.168 -0.1543  0.3496 -0.1799
10918PP      PP21022  10.446  15.731   1.584 -0.0419  0.2449 -0.0565
10919PP      PP21023   4.587  13.009  10.541  0.2241  0.0487 -0.0299
10920PP      PP21024   8.639  11.038   0.922  0.1334 -0.0200  0.1096
10921PP      PP21025   1.244   9.330  10.221  0.2591  0.0067 -0.1844
10922PP      PP21026   2.193  12.393   2.042 -0.0492  0.0153 -0.0788
10923PP      PP21027  14.680   6.054   1.145  0.1641 -0.0826  0.0278
10924PP      PP21028  10.684   4.936   4.943 -0.1485  0.1851 -0.0744
10925PP      PP21029  15.131   4.093   3.380 -0.3228 -0.4206  0.1734
10926PP      PP21030   9.847  11.641  11.014 -0.3149  0.1413  0.2385
10927PP      PP21031   7.639  14.347  11.796  0.0655  0.0096 -0.0223
10928PP      PP21032   4.570   5.994   1.334  0.1752 -0.0619  0.3552
10929PP      PP21033  13.658   6.491   2.459  0.0094 -0.0369 -0.1319
10930PP      PP21034  10.366   7.060   0.815 -0.0364  0.1708  0.2841
10931PP      PP21035   8.544   5.150  12.544  0.0106 -0.3617 -0.2698
10932PP      PP21036   4.156   0.817   8.967 -0.1539 -0.3378 -0.0060
10933PP      PP21037  15.264   1.428   9.046 -0.1301 -0.0949  0.1942
10934PP      PP21038   1.956   1.990   3.583  0.1458 -0.2477 -0.0705
10935PP      PP21039   2.708   6.959  10.703  0.0654  0.1736  0.2953
10936PP      PP21040   2.712   0.158  11.525 -0.1398 -0.0123 -0.0743
10937PP      PP21041  13.462   5.366   3.933  0.3222  0.0490 -0.2040
10938PP      PP21042  14.368  10.496  12.181 -0.2079  0.3109  0.1448
10939PP      PP21043   4.317  10.258   2.674 -0.3507  0.0192 -0.4242
10940PP      PP21044   9.486   4.316  13.156 -0.1879 -0.0362 -0.2771
10941PP      PP21045   5.438  11.953   0.619  0.0324 -0.1199  0.2704
10942PP      PP21046   6.730   7.645  10.713 -0.1819  0.0815  0.0148
10943PP      PP21047   8.017  11.600  12.542  0.0579  0.0696  0.0311
10944PP      PP21048  15.383  13.477  10.950 -0.0928  0.3082  0.0444
10945PP      PP21049   4.396   3.242   0.911 -0.1252  0.0464  0.0561
10946PP      PP21050  11.732  13.257   1.394  0.0980 -0.1004 -0.2884
10947PP      PP21051   1.431   7.322   2.522  0.2170 -0.0500 -0.1277
10948PP      PP21052  14.716   0.775  11.265 -0.1900  0.3323  0.1427
10949PP      PP21053  13.707  12.040   4.008 -0.0697  0.0114  0.0259
10950PP      PP21054   5.578   2.274   3.127  0.1536 -0.0077 -0.2779
10951PP      PP21055  11.460  10.591  11.387  0.1706 -0.2098  0.1558
10952PP      PP21056  10.567   7.511   9.181  0.1797  0.1996 -0.0270
10953PP      PP21057   1.522  12.385  10.564 -0.0278  0.3750  0.1238
10954PP      PP21058   2.442   6.032   5.600 -0.0236 -0.1642 -0.6595
10955PP      PP21059  12.909   1.111   0.861 -0.0069 -0.1891  0.0200
10956PP      PP21060   8.013   7.211  10.046 -0.0632 -0.2486  0.0736
10957PP      PP21061  14.425   5.126  12.691  0.1547 -0.2498 -0.2871
10958PP      PP21062   6.275   6.892  12.240  0.1578  0.1714  0.0529
10959PP      PP21063   7.076   2.905   0.729 -0.2040  0.0844  0.0124
10960PP      PP21064   7.108   4.164   1.692  0.0542  0.2274 -0.1283
10961PP      PP21065   7.993   9.937   5.282 -0.0858 -0.1377 -0.0232
10962PP      PP21066   9.442   8.773  11.503  0.0017  0.1180 -0.2740
10963PP      PP21067   2.285  14.494   2.717  0.1299  0.0430 -0.2568
10964PP      PP21068   8.464   8.565   1.001 -0.0472 -0.3339  0.1452
10965PP      PP21069   1.977   8.876   2.860  0.1737 -0.0309 -0.0005
10966PP      PP21070   7.412  10.676   0.317 -0.1529 -0.0950  0.1317
10967PP      PP21071   9.837  12.683   7.728 -0.0437 -0.2776 -0.1205
10968PP      PP21072   9.125  12.361  10.645 -0.3540  0.0966 -0.0527
10969PP      PP21073  11.517   2.467   4.794  0.1394  0.0945 -0.1760
10970PP      PP21074  10.380   5.697   7.998  0.2408  0.2393 -0.0786
10971PP      PP21075   1.662   3.596   2.664 -0.0423  0.0173 -0.0956
10972PP      PP21076   0.278   8.597   2.774 -0.0304 -0.1408  0.0319
10973PP      PP21077   5.626   8.663  10.485  0.2532 -0.1780 -0.2459
10974PP      PP21078   7.379  11.120  10.831 -0.3063  0.0563  0.1863
10975PP      PP21079   9.549   8.543   8.689  0.1161  0.0290  0.1314
10976PP      PP21080  12.259  12.934   0.140 -0.2337  0.1018 -0.0450
10977PP      PP21081   2.350   8.758   2.542  0.0244 -0.1937  0.0851
10978PP      PP21082   3.528   7.944   4.102  0.0304  0.0082 -0.0501
10979PP      PP21083   9.102  12.062   3.758  0.1571 -0.1057  0.0125
10980PP      PP21084  15.198   6.082   3.777 -0.1398  0.1777 -0.2843
10981PP      PP21085   6.265   2.682   0.442 -0.2103  0.0464  0.0120
10982PP      PP21086   6.199  10.598   2.174 -0.3169  0.1187  0.1780
10983PP      PP21087  10.371  12.107   3.979 -0.1031  0.1005 -0.1472
10984PP      PP21088   9.035   4.755   0.985 -0.1084 -0.1580  0.3685
10985PP      PP21089   3.102   9.767  13.107 -0.1604 -0.1197 -0.0485
10986PP      PP21090   6.439   2.467  13.422 -0.2012  0.0500 -0.0457
10987PP      PP21091   7.238   2.996   0.213 -0.0247 -0.0033  0.1327
10988PP      PP21092   4.379  11.325   1.473 -0.1847 -0.1318  0.1598
10989PP      PP21093   6.194  10.353   0.886 -0.1977 -0.2437 -0.1927
10990PP      PP21094   4.769   7.322   4.663 -0.3720  0.0005  0.0336
10991PP      PP21095  10.162  10.676   9.372  0.0548 -0.3550 -0.1361
10992PP      PP21096   1.638   7.710   2.159  0.0458 -0.1029  0.0919
10993PP      PP21097  11.649   4.799   3.257  0.3221 -0.1349  0.2233
10994PP      PP21098   1.756   0.836   1.809 -0.1711  0.2278 -0.1719
10995PP      PP21099   9.905   6.703  12.723 -0.0056  0.0331  0.1711
10996PP      PP21100  12.716   3.685   8.392 -0.1148 -0.2854  0.1384
10997PP      PP21101   0.148  12.572   4.491 -0.3992  0.0613  0.0292
10998PP      PP21102   3.330  15.126   0.190  0.0507 -0.2256  0.1137
10999PP      PP21103   3.731  11.112  11.666 -0.0862 -0.1912 -0.0512
11000PP      PP21104   4.126  13.430  12.134 -0.1004 -0.3279  0.1649
11001PP      PP21105   7.724   0.827  10.146 -0.1192  0.0433  0.3486
11002PP      PP21106   0.022  10.723   1.826  0.0055  0.1903  0.0946
11003PP      PP21107  15.239  14.568  10.457 -0.0955  0.1894 -0.0986
11004PP      PP21108   6.038   9.956   3.819 -0.0784  0.3815 -0.0678
11005PP      PP21109   8.269  11.360   8.763 -0.2289 -0.0406 -0.1024
11006PP      PP21110   1.858  14.331  10.466 -0.0739 -0.1411 -0.0839
11007PP      PP21111  12.583  12.976   3.410 -0.0447 -0.2407 -0.0602
11008PP      PP21112   3.067   8.139   4.530 -0.0527  0.2480 -0.1483
11009PP      PP21113  11.979   1.932  10.678  0.0819  0.0493  0.3066
11010PP      PP21114   1.036  11.919  12.934  0.3133 -0.0521 -0.3093
11011PP      PP21115   8.073  10.920   4.250  0.1456 -0.0568 -0.1576
11012PP      PP21116  10.004   0.391  11.307 -0.0899  0.1696  0.2176
11013PP      PP21117   8.705   6.028  12.466  0.2669  0.1539  0.0884
11014PP      PP21118  10.802   1.141   3.393  0.1010  0.1684  0.1671
11015PP      PP21119   3.565   9.540   0.855 -0.3553  0.1665 -0.0820
11016PP      PP21120   7.216  12.664   9.077 -0.2299  0.1750  0.0083
11017PP      PP21121   8.047   4.155   9.858  0.0292  0.2762 -0.0210
11018PP      PP21122  14.033   5.848  11.771  0.3237 -0.1755 -0.1152
11019PP      PP21123   2.390   9.886   0.968 -0.2092 -0.0978  0.0468
11020PP      PP21124   9.641  14.312  12.702  0.0681 -0.1748  0.0916
11021PP      PP21125   7.270  15.603   0.767 -0.0046 -0.1676 -0.1309
11022PP      PP21126   6.162  11.803  11.138  0.1136 -0.2720 -0.0500
11023PP      PP21127  14.392  12.977  10.092  0.3094  0.1348 -0.1595
11024PP      PP21128  14.584  14.369   9.515  0.0153 -0.1803 -0.2926
11025PP      PP21129   2.587  12.156   9.528  0.1370 -0.0768 -0.1290
11026PP      PP21130   6.313   2.970   0.000 -0.0551 -0.1529 -0.1168
11027PP      PP21131   0.546  12.048  10.847  0.0842 -0.0051  0.0660
11028PP      PP21132   6.668  15.095   4.202 -0.1624  0.1146 -0.1141
11029PP      PP21133   2.222   7.875   0.297 -0.1422  0.2346 -0.0933
11030PP      PP21134  14.092  11.357  13.313 -0.1583  0.1311 -0.0060
11031PP      PP21135   9.045   7.048   2.780 -0.1742  0.1251 -0.3956
11032PP      PP21136  11.390   7.218   1.273 -0.2401  0.0525  0.0414
11033PP      PP21137   5.309   2.122   4.488  0.0036 -0.1754 -0.0985
11034PP      PP21138   2.006   2.589   9.925  0.1674  0.0790  0.0901
11035PP      PP21139  10.592   9.091   4.192  0.0895 -0.0600  0.4635
11036PP      PP21140  14.233   6.026   9.595  0.2680  0.1532  0.0637
11037PP      PP21141   6.171   4.318   1.639  0.2572  0.0716 -0.0794
11038PP      PP21142  10.607  13.837  12.842 -0.2398  0.0185  0.3314
11039PP      PP21143   6.890   7.382   3.940  0.0486  0.2185  0.1074
11040PP      PP21144   5.183  10.665   3.920 -0.1064 -0.1037 -0.1872
11041PP      PP21145   3.430   9.335   1.946  0.2558  0.1941  0.0898
11042PP      PP21146  15.465  10.323   0.658  0.0594  0.0922 -0.1740
11043PP      PP21147   5.974   9.498   3.481  0.2109 -0.0907  0.1276
11044PP      PP21148   1.773  10.155   4.090 -0.2256 -0.0436  0.0540
11045PP      PP21149  10.395   8.833   1.637  0.0442  0.0350  0.0675
11046PP      PP21150   3.331   4.797   0.304 -0.1494  0.2515 -0.0471
11047PP      PP21151   1.864  15.166   1.611  0.2397  0.0389 -0.0649
11048PP      PP21152   2.803   1.600   0.044 -0.3236  0.1430  0.0498
11049PP      PP21153   2.453   2.299   1.735 -0.0791  0.1308 -0.0866
11050PP      PP21154   4.244  15.092   1.311  0.1457 -0.1044 -0.1670
11051PP      PP21155   2.727  12.990  10.713 -0.4078  0.1619 -0.0288
11052PP      PP21156   2.107  15.778   9.589  0.0474 -0.0403 -0.0691
11053PP      PP21157   9.488  13.646   2.240  0.0884  0.1145  0.3053
11054PP      PP21158  13.622   3.495   0.056 -0.1509 -0.0902  0.3644
11055PP      PP21159  11.979  13.828   8.760  0.1912  0.0572 -0.0358
11056PP      PP21160   6.823  12.440  10.671  0.2052 -0.0321  0.1606
11057PP      PP21161  10.954   5.060   0.843 -0.0086  0.1452  0.2994
11058PP      PP21162  13.923  12.838   0.130  0.1504  0.1956  0.1940
11059PP      PP21163   3.875  15.353  10.239 -0.2326 -0.0345 -0.0697
11060PP      PP21164  14.392   6.203  10.070 -0.0869 -0.4504  0.5828
11061PP      PP21165   0.467  10.885  13.142  0.0253  0.2810  0.1368
11062PP      PP21166   8.094  11.707  11.245 -0.2243  0.1657 -0.1227
11063PP      PP21167  10.223   6.674   8.881 -0.1142  0.0221  0.3875
11064PP      PP21168   8.496   9.519   9.885 -0.1635  0.0322  0.4798
11065PP      PP21169   9.970   3.429   1.609  0.0021  0.1125  0.1581
11066PP      PP21170   8.992   7.177   0.110 -0.1033  0.1222 -0.1118
11067PP      PP21171   2.909   6.997  12.671 -0.2592  0.0174 -0.1015
11068PP      PP21172  10.446   8.881  13.280 -0.0546 -0.2579  0.0518
11069PP      PP21173  10.134   9.130  11.131 -0.0874 -0.0787  0.1496
11070PP      PP21174   2.674  11.023  13.262  0.3578 -0.1284 -0.1366
11071PP      PP21175  14.766   8.573  13.398  0.3766  0.2240  0.0773
11072PP      PP21176   5.283  12.249   1.747  0.2679 -0.1581  0.2520
11073PP      PP21177   2.659   6.451  10.772 -0.0588 -0.1828 -0.3405
11074PP      PP21178   0.012  13.607   8.526 -0.1422  0.3374  0.1582
11075PP      PP21179  14.283   6.467   9.311  0.0283  0.0535  0.2586
11076PP      PP21180  12.138  12.281  12.410  0.1250  0.1386  0.2385
11077PP      PP21181  14.534   8.125   4.565  0.1046  0.0096  0.1915
11078PP      PP21182   6.382   2.241   9.203  0.1021 -0.0522 -0.1219
11079PP      PP21183   1.095   5.026   4.601  0.3404 -0.0232 -0.0524
11080PP      PP21184   0.164  11.042   2.994  0.1783  0.1065  0.1865
11081PP      PP21185   2.602  10.654   0.378  0.3049  0.0284 -0.2919
11082PP      PP21186  15.183   3.773  12.313  0.0214 -0.2008 -0.1146
11083PP      PP21187   3.148  10.215   4.242  0.3318  0.2276  0.0193
11084PP      PP21188  13.944  10.444   3.367 -0.1322  0.0765  0.0515
11085PP      PP21189  13.572   5.115  13.059 -0.0013  0.1997  0.2261
11086PP      PP21190   9.647   5.935  11.921  0.2850 -0.4730 -0.0039
11087PP      PP21191   2.188   7.760  12.963  0.0746 -0.1586 -0.1013
11088PP      PP21192   0.385  13.350   8.862  0.1456  0.1070  0.1599
11089PP      PP21193  12.259  15.028   9.103 -0.0164 -0.2164 -0.1141
11090PP      PP21194   4.971   5.020  12.371 -0.1411 -0.3621  0.0410
11091PP      PP21195  10.576   0.065   3.016  0.4370  0.3716 -0.0553
11092PP      PP21196   8.449  15.517  11.714 -0.0483 -0.2053  0.1938
11093PP      PP21197  14.897   2.869   0.099  0.1127  0.3757 -0.1793
11094PP      PP21198   7.670   5.838   9.774 -0.2823  0.0642  0.1938
11095PP      PP21199   5.223   2.608   4.643 -0.1570 -0.0532  0.0563
11096PP      PP21200   6.260  13.575   8.244  0.1078 -0.1490 -0.3000
11097PP      PP21201  14.725   4.675   0.042  0.1621  0.1057 -0.1219
11098PP      PP21202   5.106   3.270   1.030  0.0010  0.1178 -0.2209
11099PP      PP21203  13.309  12.179   3.736 -0.1010 -0.1596 -0.0342
11100PP      PP21204   5.776  12.723   4.319 -0.4281  0.2833  0.0483
11101PP      PP21205   1.126   5.603   1.936 -0.1820 -0.0919  0.0834
11102PP      PP21206   5.215   4.718   0.005  0.0061 -0.4242 -0.0495
11103PP      PP21207   7.632   5.701   3.888  0.0852 -0.1061  0.1769
11104PP      PP21208   0.371   7.528  11.160 -0.0659 -0.0942 -0.1656
11105PP      PP21209   3.449  15.793   0.875  0.2740  0.2364  0.1864
11106PP      PP21210  13.773   1.136   9.838 -0.0850  0.1381  0.0150
11107PP      PP21211  15.375  14.211   8.957 -0.0362  0.0837 -0.1798
11108PP      PP21212   6.606  12.237   2.385  0.2296  0.2183  0.2561
11109PP      PP21213   4.681   7.600   4.239  0.3102  0.0451  0.0074
11110PP      PP21214  14.853   4.884  12.819  0.2194  0.2678  0.1569
11111PP      PP21215  15.824   5.391  11.153  0.2763 -0.3574  0.0065
11112PP      PP21216   8.748  15.209   3.406 -0.0185  0.0134 -0.0173
11113PP      PP21217   8.746   0.442  13.217 -0.0011 -0.0757 -0.0624
11114PP      PP21218   4.971   0.508   2.749  0.0484  0.2756 -0.4297
11115PP      PP21219   7.787  12.355   0.288  0.0640  0.1377 -0.0700
11116PP      PP21220   1.089   8.209  10.679  0.3176  0.2967  0.1869
11117PP      PP21221   1.384   5.055  10.597 -0.1089 -0.0336  0.2698
11118PP      PP21222  14.190   4.353   0.527 -0.0647 -0.0255 -0.2190
11119PP      PP21223  14.581  13.143   4.066 -0.1300  0.0881 -0.1092
11120PP      PP21224   9.542   3.029  10.130 -0.2412  0.0504 -0.4487
11121PP      PP21225  12.954  13.925   9.124 -0.0139 -0.0030 -0.2043
11122PP      PP21226   6.441   3.373   2.095  0.0615 -0.0964 -0.0203
11123PP      PP21227   3.262   9.396   0.453 -0.0407  0.2682  0.2868
11124PP      PP21228   0.656  13.741   0.679 -0.1164 -0.0311 -0.5297
11125PP      PP21229   9.609  14.043   3.702  0.2312 -0.3583  0.1064
11126PP      PP21230   7.670  12.578  11.847 -0.2578 -0.3166 -0.2689
11127PP      PP21231   2.956  12.824   0.850  0.0115  0.1326  0.3092
11128PP      PP21232   4.022   7.584   2.929 -0.1972 -0.1061  0.0940
11129PP      PP21233   1.670   2.600  10.911  0.0112 -0.2247  0.0086
11130PP      PP21234   9.388  15.540  13.128 -0.0344  0.0442 -0.1474
11131PP      PP21235  12.596   0.883   0.534 -0.1679 -0.1360  0.0399
11132PP      PP21236  15.798   2.404   1.518 -0.0826 -0.2888  0.0503
11133PP      PP21237   0.743   3.095   4.589 -0.2782  0.0359  0.1032
11134PP      PP21238   5.417   3.202   0.369 -0.1890 -0.0246 -0.2631
11135PP      PP21239   5.433  14.193   2.888 -0.2043  0.0014  0.1616
11136PP      PP21240  12.925   5.749   9.437 -0.0517  0.0421  0.0790
11137PP      PP21241  12.520   6.412   3.570 -0.2670  0.1690 -0.1144
11138PP      PP21242   0.448   9.776  11.710  0.2272 -0.1573 -0.0389
11139PP      PP21243   8.148  12.159   9.788  0.1853 -0.0613  0.1375
11140PP      PP21244   7.192  10.690   3.031 -0.3931 -0.0748  0.1171
11141PP      PP21245  10.122  14.556   3.301 -0.0089 -0.0564  0.1185
11142PP      PP21246  12.964   9.196   1.651  0.1747 -0.1201 -0.0371
11143PP      PP21247   1.438   2.657  12.741  0.0283  0.3045  0.0111
11144PP      PP21248  14.343   5.726  12.842  0.1218  0.0163 -0.1622
11145PP      PP21249   6.356   3.941  10.452  0.1436 -0.4116 -0.3194
11146PP      PP21250   7.731   6.398   4.870  0.2589  0.0699 -0.0189
11147PP      PP21251  10.242   8.627   3.374  0.1464  0.3457 -0.2558
11148PP      PP21252  10.871   6.832   4.394 -0.2071 -0.1452 -0.2325
11149PP      PP21253  12.531   5.874  12.687 -0.0389 -0.0457 -0.0266
11150PP      PP21254  15.134  15.543  10.057  0.0674  0.0469 -0.1002
11151PP      PP21255   7.972  10.565  11.193  0.3323  0.1015  0.1124
11152PP      PP21256   2.192  14.239  11.305 -0.0020 -0.2019 -0.0947
11153PP      PP21257   6.080  13.284   4.187  0.2599  0.3859 -0.2285
11154PP      PP21258   7.238  15.095   3.377 -0.0151  0.1724  0.0914
11155PP      PP21259  14.062   3.639   9.404  0.2082  0.2230  0.0018
11156PP      PP21260   1.241  13.985  11.316  0.0590  0.2610  0.0010
11157PP      PP21261   5.017   9.937   5.404 -0.0959 -0.0251 -0.0513
11158PP      PP21262  15.213   5.043  10.666 -0.1575 -0.2183 -0.2030
11159PP      PP21263  15.854   4.501   2.766  0.1310  0.0843  0.0488
11160PP      PP21264   1.800   4.789   3.420 -0.1572 -0.3608  0.4873
11161PP      PP21265   3.055  15.674   3.711  0.0603 -0.0808 -0.0369
11162PP      PP21266  11.799   0.574   0.854 -0.2043 -0.1007 -0.0506
11163PP      PP21267  12.248  10.178   0.188 -0.0124 -0.3510  0.1668
11164PP      PP21268  13.692  10.362   2.938 -0.0791  0.2651  0.1595
11165PP      PP21269  15.240  10.134   4.204 -0.3464 -0.3532  0.1518
11166PP      PP21270   0.574   2.730   9.247 -0.2646  0.0189 -0.1042
11167PP      PP21271   8.813  12.709  10.302  0.1165  0.3446  0.1710
11168PP      PP21272   0.509   3.170  10.199 -0.0076 -0.0451  0.0307
11169PP      PP21273  13.835   4.976  13.451  0.0386 -0.0711  0.1468
11170PP      PP21274  10.189  13.048   9.021 -0.3509 -0.0065  0.3339
11171PP      PP21275  11.908   6.890   2.115 -0.2020  0.0619 -0.2144
11172PP      PP21276   7.244   9.429  11.191 -0.0553 -0.2599 -0.1753
11173PP      PP21277   3.483   5.930   4.882  0.1663  0.0451  0.2668
11174PP      PP21278   3.873   9.208  10.380 -0.1412 -0.2515 -0.2521
11175PP      PP21279  14.328   6.687  10.186 -0.1927 -0.1801 -0.0740
11176PP      PP21280   0.683  10.169  12.186  0.3040  0.2508 -0.0749
11177PP      PP21281  14.843   3.459  12.522  0.0494  0.1675 -0.0385
11178PP      PP21282   6.093   2.850   4.361  0.1037 -0.0184 -0.0620
11179PP      PP21283   9.165  15.054   8.876  0.1572  0.1345 -0.0802
11180PP      PP21284  10.641  11.715   3.657  0.1493  0.4401  0.1040
11181PP      PP21285   9.266  10.766   9.531 -0.2747  0.1942  0.2746
11182PP      PP21286   3.514  10.134   4.747 -0.3293 -0.0840 -0.0287
11183PP      PP21287   3.062   7.470  12.643  0.1181 -0.4342  0.2200
11184PP      PP21288   5.662   5.897  12.499  0.3640 -0.1658 -0.0794
11185PP      PP21289  13.673  14.991  12.050  0.0721 -0.2329  0.0617
11186PP      PP21290   6.954   7.411  11.160  0.2376 -0.1853 -0.1950
11187PP      PP21291  13.152   8.832   0.829  0.0456  0.2683  0.0635
11188PP      PP21292   4.837   6.784  12.219  0.1368 -0.2892  0.0919
11189PP      PP21293   3.341  14.871   9.515  0.0926  0.0674  0.0986
11190PP      PP21294   5.832  13.574   9.202  0.2393 -0.1738  0.0608
11191PP      PP21295   4.856  10.413   3.435 -0.0056  0.0536 -0.0378
11192PP      PP21296   5.568  10.179   5.411 -0.0890  0.3085  0.0652
11193PP      PP21297  11.732   8.091   0.258 -0.0581 -0.3320 -0.0787
11194PP      PP21298   6.189  10.676  13.200  0.1045 -0.1200 -0.0795
11195PP      PP21299   9.672  12.893   8.871 -0.1250  0.0002 -0.2076
11196PP      PP21300  10.393   3.464  11.737 -0.1570 -0.0700 -0.1598
11197PP      PP21301  15.889  10.712  12.136 -0.0651  0.0149 -0.1095
11198PP      PP21302  11.167   9.100  10.501  0.4107  0.0697  0.0837
11199PP      PP21303   2.138   8.489   0.273  0.0123 -0.1015 -0.1437
11200PP      PP21304  13.615   3.755   4.664 -0.1034 -0.0796 -0.0151
11201PP      PP21305  12.131   2.736   9.191  0.0597  0.0104  0.1899
11202PP      PP21306  10.981  13.083  10.884  0.1686  0.1227  0.1668
11203PP      PP21307  14.250   2.808   2.729  0.0628  0.1502  0.0883
11204PP      PP21308  12.396  13.160   9.565  0.0816 -0.1996  0.1692
11205PP      PP21309   2.467  13.926   3.609 -0.0119  0.2960  0.1653
11206PP      PP21310  12.524   8.951   1.664  0.0118 -0.3925 -0.1105
11207PP      PP21311  13.672   6.549   3.904 -0.3440  0.2553  0.0718
11208PP      PP21312   8.163   7.977   2.543 -0.2791 -0.1725 -0.0452
11209PP      PP21313   7.705   0.451   9.748  0.0006  0.0264  0.2220
11210PP      PP21314   6.662   3.759   2.457  0.1982 -0.0228 -0.0613
11211PP      PP21315   7.006  14.262   2.070 -0.1627  0.1456  0.0979
11212PP      PP21316  13.732  10.674  10.878 -0.1983 -0.2041  0.0577
11213PP      PP21317   7.227  10.260  11.896  0.3552 -0.3930  0.2224
11214PP      PP21318   9.099   7.197   9.170  0.1920  0.0131  0.1200
11215PP      PP21319   5.944   2.667  10.518 -0.1084  0.2740  0.0255
11216PP      PP21320   6.028   5.562   5.150 -0.5336 -0.1116  0.0477
11217PP      PP21321   8.009  12.456   4.169  0.1791 -0.0232  0.1104
11218PP      PP21322   4.406   8.948   4.056 -0.0825  0.0579 -0.3032
11219PP      PP21323  12.199   4.990   3.480 -0.0319 -0.1236  0.0377
11220PP      PP21324  15.727  14.383   2.593  0.2284  0.1694 -0.0594
11221PP      PP21325  15.013   8.739  13.032 -0.1472  0.0336 -0.1871
11222PP      PP21326   1.049  14.487  10.048 -0.2736  0.3532 -0.0543
11223PP      PP21327   3.483   2.999   2.971 -0.3172 -0.2025  0.2411
11224PP      PP21328   9.762   2.070  12.549  0.4710  0.0999 -0.0222
11225PP      PP21329  13.967  10.485   2.037 -0.1124  0.0115 -0.0114
11226PP      PP21330   9.436   1.080   4.327 -0.1553 -0.3938 -0.0186
11227PP      PP21331   7.026  12.186  11.253  0.0673  0.0874 -0.0455
11228PP      PP21332   1.069   2.324   1.814 -0.0179 -0.1527  0.1102
11229PP      PP21333   5.025   2.676  10.404  0.1231  0.0189 -0.0751
11230PP      PP21334   6.125  14.715  12.602  0.1505 -0.1629 -0.0926
11231PP      PP21335  11.423   9.719   9.733 -0.1756 -0.0316  0.1928
11232PP      PP21336  10.927  13.778   0.825 -0.1060  0.2000 -0.2491
11233PP      PP21337   8.385   8.423  10.068 -0.4076  0.1855 -0.1860
11234PP      PP21338  15.448  12.642   2.150 -0.0650  0.3302 -0.1140
11235PP      PP21339  10.053  14.085   3.368  0.0597 -0.0239 -0.0293
11236PP      PP21340  11.745   7.793  12.639 -0.1697 -0.2196  0.4001
11237PP      PP21341  12.675   1.334  10.956  0.1568  0.2155 -0.0431
11238PP      PP21342   0.366  12.811  12.014  0.0470 -0.1274  0.1933
11239PP      PP21343   2.428  10.816  11.661  0.2434 -0.4470 -0.1128
11240PP      PP21344   0.688   9.487  13.149  0.3206 -0.0841 -0.1370
11241PP      PP21345   8.572   2.321  11.965  0.0293  0.0282  0.1076
11242PP      PP21346   7.173   0.085   3.261  0.3956 -0.1862 -0.0296
11243PP      PP21347   3.900  12.412  10.602 -0.0591  0.0082  0.2919
11244PP      PP21348  12.152  12.858   8.720  0.1751 -0.0150 -0.1678
11245PP      PP21349   3.640   1.124   3.911  0.3136 -0.0046  0.2051
11246PP      PP21350  13.580   0.064   1.222  0.3914 -0.1070 -0.0811
11247PP      PP21351  12.159   9.933  10.555 -0.0200 -0.1700  0.0811
11248PP      PP21352  12.626   6.798   1.701  0.0618  0.1664 -0.0788
11249PP      PP21353  12.521   7.676  12.459 -0.1611  0.0761  0.2062
11250PP      PP21354  12.380   7.120   3.729  0.2098 -0.1200  0.3935
11251PP      PP21355  15.542   6.843   4.196 -0.2467 -0.4099  0.0316
11252PP      PP21356  10.011  11.278   2.302 -0.1171 -0.1034 -0.0861
11253PP      PP21357  12.965   5.878   0.844  0.1175  0.0659  0.1640
11254PP      PP21358   9.185   1.019  12.706  0.0107 -0.2661  0.2706
11255PP      PP21359   1.522   4.512   3.194  0.3237  0.3722  0.3498
11256PP      PP21360   0.262   4.995   0.216  0.1684 -0.3076 -0.1937
11257PP      PP21361  14.307  15.432  12.807  0.3503  0.2885  0.0115
11258PP      PP21362   4.754   8.904   0.012  0.1451  0.0531  0.0032
11259PP      PP21363  15.109   3.795   2.443 -0.1341 -0.1790 -0.0663
11260PP      PP21364   4.599  13.915   0.612  0.0661 -0.2732 -0.5348
11261PP      PP21365   1.355   8.042  11.331 -0.1588  0.1463  0.0512
11262PP      PP21366   6.810   4.230   2.672  0.0707  0.1322 -0.0921
11263PP      PP21367  14.022  14.520   8.912  0.1824  0.0390 -0.1130
11264PP      PP21368  15.114  12.936  11.600  0.0691 -0.2358  0.3283
11265PP      PP21369   1.380   5.162   9.141  0.0239 -0.0041 -0.1526
11266PP      PP21370   2.480   2.513   9.889 -0.0803 -0.1805 -0.1051
11267PP      PP21371   3.903   5.828   2.913 -0.2308 -0.0858  0.0690
11268PP      PP21372   2.472   8.788   1.116  0.0121  0.0469  0.0420
11269PP      PP21373   6.574   2.868   3.238 -0.0806 -0.0231 -0.1339
11270PP      PP21374   9.463   5.224   2.650  0.3183 -0.2350 -0.1175
11271PP      PP21375   6.372   4.715  10.960 -0.3211  0.1811  0.1038
11272PP      PP21376  15.622   6.434   1.375 -0.2569  0.4319 -0.0355
11273PP      PP21377  13.822  12.075  11.362 -0.1450 -0.3784  0.0352
11274PP      PP21378   4.862  15.628   1.629  0.0854  0.1369 -0.0076
11275PP      PP21379   8.207   0.444  11.400  0.0329 -0.0425 -0.1067
11276PP      PP21380   7.074   0.067  13.140 -0.0143 -0.1012 -0.1135
11277PP      PP21381   1.620  14.118   0.656  0.3918  0.0115  0.0456
11278PP      PP21382   3.945   9.650   1.639 -0.1614 -0.1190  0.1712
11279PP      PP21383   4.012   3.303  11.277  0.3195 -0.0060  0.1481
11280PP      PP21384   0.503  12.934   2.412  0.0435 -0.1436 -0.0251
11281PP      PP21385   5.828  10.470   1.668 -0.2700  0.1118 -0.1960
11282PP      PP21386   2.563   2.802   1.012  0.0345 -0.2216 -0.0964
11283PP      PP21387  10.245   4.770   0.254  0.0583 -0.2928 -0.1209
11284PP      PP21388   5.428   7.824   3.188 -0.1412 -0.0431  0.2231
11285PP      PP21389  13.031   0.166   1.182 -0.1260 -0.2513 -0.0112
11286PP      PP21390  11.185   3.116  13.110 -0.2588  0.0667 -0.3291
11287PP      PP21391   2.889   7.329   3.897 -0.1595 -0.0584 -0.2413
11288PP      PP21392   4.689   9.862   1.954  0.2279  0.1858 -0.0376
11289PP      PP21393  15.485   6.883   2.781  0.0392 -0.2113  0.0698
11290PP      PP21394   2.409   4.978   4.865  0.0011 -0.2460 -0.1841
11291PP      PP21395  15.429   7.042   4.766  0.1950  0.1208  0.2650
11292PP      PP21396  13.356   6.458  12.377  0.4102  0.1609  0.2608
11293PP      PP21397  15.583   1.786   1.376 -0.1661  0.0648  0.2225
11294PP      PP21398  14.797   5.391   0.558  0.0383  0.1042 -0.2582
11295PP      PP21399  13.784   2.709  12.274  0.0922 -0.3532 -0.1271
11296PP      PP21400   2.336   5.299  11.662  0.0213  0.0005 -0.2342
11297PP      PP21401   4.107  15.247  11.891  0.3049 -0.3553 -0.1080
11298PP      PP21402  14.368   7.499   9.918  0.1674  0.0172 -0.2211
11299PP      PP21403  12.859  13.713   2.333  0.2164 -0.0490  0.3652
11300PP      PP21404   6.254   7.389   3.414  0.0540  0.1040 -0.1042
11301PP      PP21405  14.848   4.294   9.117  0.1145  0.1933  0.1397
11302PP      PP21406  13.694  10.063   1.230  0.1221 -0.2843  0.1940
11303PP      PP21407   0.499   8.969  10.865  0.0300  0.1662  0.2838
11304PP      PP21408   5.878   4.613  10.900 -0.2594  0.0161  0.0765
11305PP      PP21409   7.855   1.178   2.408  0.0579  0.4455 -0.2116
11306PP      PP21410  13.075   3.030  12.762 -0.0532 -0.1708  0.0581
11307PP      PP21411  14.472   1.735  12.170  0.0311  0.0019 -0.0905
11308PP      PP21412   3.259   7.237   4.722  0.0403 -0.2266 -0.1254
11309PP      PP21413   3.815   1.002   2.085  0.0588 -0.0585  0.0451
11310PP      PP21414   0.960   8.579  13.351 -0.1948 -0.0208  0.0183
11311PP      PP21415   3.814  10.327   3.096 -0.2058  0.1299 -0.0383
11312PP      PP21416   1.537   6.386   0.877 -0.2733 -0.0831  0.1982
11313PP      PP21417   5.166   3.387  13.128 -0.0867 -0.0819  0.1537
11314PP      PP21418  12.772   5.072  11.316  0.0685 -0.1419  0.2977
11315PP      PP21419   3.893   5.041   1.205 -0.1262 -0.3486  0.0428
11316PP      PP21420   4.519  10.370  11.768  0.2183  0.0048 -0.4667
11317PP      PP21421   8.203  13.738  10.760 -0.2456  0.0686 -0.0847
11318PP      PP21422   3.098   4.151  10.976  0.1153  0.2132  0.0047
11319PP      PP21423  13.641   3.856   1.588  0.0107 -0.2166  0.1929
11320PP      PP21424   0.728   6.766   1.444  0.0310  0.0076 -0.0835
11321PP      PP21425   9.791  10.378   3.919  0.3374  0.3106 -0.0806
11322PP      PP21426  14.169   8.313   9.077 -0.0492 -0.3862 -0.0239
11323PP      PP21427  10.064   6.852   0.433 -0.1969  0.4759  0.2878
11324PP      PP21428  11.776   1.149  13.388 -0.0009  0.4855  0.0758
11325PP      PP21429   5.617   4.974  11.819  0.0484 -0.1585  0.0538
11326PP      PP21430   7.407   9.244  13.109 -0.1086  0.0019 -0.0915
11327PP      PP21431   6.697   0.253  13.370  0.2456  0.0640  0.2481
11328PP      PP21432   0.343  14.797   1.344 -0.2732 -0.1386 -0.0292
11329PP      PP21433   8.463   4.470  10.072 -0.0137 -0.2256  0.0967
11330PP      PP21434   1.284   1.233  11.722  0.1212  0.1006  0.1802
11331PP      PP21435   8.593   9.321  11.130  0.0985 -0.1247 -0.3800
11332PP      PP21436  14.344   4.569   9.043  0.0017 -0.0100  0.2352
11333PP      PP21437  13.719   7.376  12.437  0.3370 -0.0531 -0.1705
11334PP      PP21438  12.435  14.594  11.807  0.0967  0.2757  0.4350
11335PP      PP21439   8.387  14.972  11.532 -0.2036 -0.2230  0.1080
11336PP      PP21440  13.037   7.180   0.401  0.1307  0.0008  0.2253
11337PP      PP21441   8.774  11.595   1.617  0.0564  0.1811 -0.1524
11338PP      PP21442  12.303   9.748  12.578  0.0649 -0.1890 -0.0136
11339PP      PP21443  14.678   6.447   2.822  0.2292 -0.0152 -0.0398
11340PP      PP21444  13.400  10.130  11.912  0.0426  0.4015 -0.1475
11341PP      PP21445   0.605  10.856   1.015 -0.4439 -0.4437  0.0073
11342PP      PP21446  15.356  11.915   2.298  0.2380 -0.1301  0.3137
11343PP      PP21447  14.003   6.045   4.000 -0.0192 -0.1938  0.0222
11344PP      PP21448  12.651  13.841   3.345 -0.2277  0.0301  0.1767
11345PP      PP21449  15.518  11.944  10.660  0.2468  0.1303  0.0831
11346PP      PP21450   2.814  15.824   1.492  0.2653 -0.0872  0.0016
11347PP      PP21451   7.334  14.305   8.858 -0.1561  0.1292 -0.0835
11348PP      PP21452  15.478  12.855  10.212 -0.2817  0.2343  0.2282
11349PP      PP21453   0.480  15.784  10.356  0.0333  0.2514 -0.1276
11350PP      PP21454   0.002   8.798   1.995 -0.4655 -0.0583  0.1436
11351PP      PP21455  13.869   3.911  12.605  0.2027 -0.1334  0.2558
11352PP      PP21456  14.331  13.206  12.938 -0.1153 -0.2331  0.0338
11353PP      PP21457   2.737  11.665  13.303 -0.1125  0.0116 -0.1603
11354PP      PP21458  14.629  15.018   3.251 -0.1769 -0.1221  0.1788
11355PP      PP21459   4.294   1.738  12.102  0.0048  0.1397  0.1071
11356PP      PP21460   0.891   4.858   2.621 -0.0660  0.0519 -0.0475
11357PP      PP21461   4.778   4.149  11.028 -0.0117 -0.2065 -0.1626
11358PP      PP21462  11.758   7.443   2.748  0.0838 -0.0773 -0.1851
11359PP      PP21463   4.672   4.176   1.931  0.2502 -0.3379  0.1489
11360PP      PP21464   0.137   6.828   4.553  0.0347  0.0503  0.2292
11361PP      PP21465   9.461   1.788   9.541 -0.3209 -0.0176 -0.1607
11362PP      PP21466   8.224  10.493  10.712  0.2233 -0.1468  0.0648
11363PP      PP21467  13.150   5.147  12.746 -0.0213  0.0993 -0.1275
11364PP      PP21468   1.570  12.999  11.448  0.1670  0.2458  0.0034
11365PP      PP21469  14.378  15.844   8.935  0.3118  0.5535  0.0052
11366PP      PP21470  12.447   3.200  10.578  0.0183 -0.2491 -0.2466
11367PP      PP21471  13.647   4.453   9.367 -0.4062  0.2352  0.3958
11368PP      PP21472  12.684  13.324  13.136  0.0370  0.0792 -0.0339
11369PP      PP21473   1.540  15.129  11.524  0.0360  0.1751 -0.3269
11370PP      PP21474   3.699  12.068   1.306 -0.1459  0.1894 -0.0430
11371PP      PP21475   6.349  14.386   0.496 -0.0562  0.0262 -0.1112
11372PP      PP21476  15.805  15.628   3.704 -0.0120 -0.0167  0.1128
11373PP      PP21477   9.509   5.893   2.222  0.0884  0.1828  0.0565
11374PP      PP21478  13.661   6.095  12.624 -0.0942  0.2453 -0.2292
11375PP      PP21479  14.812  14.797   9.346 -0.0622 -0.1717 -0.1110
11376PP      PP21480   4.764   7.667   5.179  0.1936 -0.2018  0.0460
11377PP      PP21481   4.041   0.517  11.321  0.0045  0.1229  0.1688
11378PP      PP21482   6.937  14.124   3.054 -0.0566 -0.0023  0.3317
11379PP      PP21483  10.237   7.097   8.424 -0.4326  0.1688  0.3110
11380PP      PP21484  12.831   1.810   2.797  0.0509 -0.2545  0.1374
11381PP      PP21485  14.536   5.597   3.391 -0.1171  0.0771  0.1198
11382PP      PP21486   8.059   1.633   0.278  0.1433  0.0027 -0.1238
11383PP      PP21487  12.855   0.168   3.462  0.3905  0.0271  0.0487
11384PP      PP21488   7.167   6.479   0.025  0.3668 -0.0999  0.0542
11385PP      PP21489   4.778   8.154  10.269  0.3260 -0.0023  0.1464
11386PP      PP21490   6.750   2.620  11.503  0.0014 -0.1493 -0.0075
11387PP      PP21491   7.517   5.558   4.736 -0.4077  0.2030 -0.0740
11388PP      PP21492  10.968   4.118  12.868  0.1318  0.2484 -0.1295
11389PP      PP21493   7.277   7.925   3.187 -0.0306  0.2731  0.1437
11390PP      PP21494   4.181  14.421  12.889  0.0132  0.3035 -0.1850
11391PP      PP21495   0.924   0.645   3.996 -0.4644 -0.1132 -0.0742
11392PP      PP21496  14.351  13.996   9.744 -0.0556 -0.0882  0.0583
11393PP      PP21497   2.054   9.462   3.365 -0.1945  0.2860  0.1610
11394PP      PP21498   5.890   6.177   9.814  0.2393  0.0291  0.2461
11395PP      PP21499   0.676   9.000  11.625  0.0553 -0.1833 -0.0056
11396PP      PP21500   0.880   5.468  11.378  0.0778  0.2199 -0.3969
11397PP      PP21501  14.184  13.941  11.742  0.0735  0.2287 -0.0609
11398PP      PP21502  13.934  15.002   2.984  0.4198 -0.0350 -0.0024
11399PP      PP21503   8.189   3.264   0.860  0.3349 -0.0462  0.0337
11400PP      PP21504   3.292   2.591  13.346  0.2392 -0.4935 -0.1184
11401PP      PP21505  15.123   2.272  12.638 -0.1969 -0.1792  0.1451
11402PP      PP21506  10.193   1.148  11.807  0.1210 -0.2083  0.0465
11403PP      PP21507  14.412   1.913  10.570 -0.2903 -0.1338 -0.2238
11404PP      PP21508   8.042   8.482  12.610  0.0405 -0.2842 -0.1185
11405PP      PP21509   2.142   0.099   4.149 -0.3714 -0.4873 -0.2824
11406PP      PP21510   6.620  15.166  10.285  0.0797 -0.2237 -0.1075
11407PP      PP21511   2.635   5.566   4.188 -0.1361 -0.2269  0.0233
11408PP      PP21512   8.557   0.767  12.835 -0.2602 -0.4381 -0.0259
11409PP      PP21513  12.268   7.686   3.501 -0.3187 -0.2922  0.0748
11410PP      PP21514  13.958   0.819   0.016 -0.1307  0.0698 -0.4693
11411PP      PP21515  12.480   9.416   1.500  0.3691 -0.1119  0.2211
11412PP      PP21516   6.005   0.161   2.608  0.2210  0.1240 -0.1987
11413PP      PP21517   9.166  11.365  12.402  0.1709 -0.2991  0.0269
11414PP      PP21518   1.942  15.097   2.284  0.0390  0.0378 -0.0541
11415PP      PP21519   7.842   9.673   4.083 -0.0855  0.2059  0.2111
11416PP      PP21520   1.665   7.872   5.497 -0.0363  0.1824 -0.1663
11417PP      PP21521   6.632   7.160  12.250  0.3187  0.0469  0.3333
11418PP      PP21522  10.847   9.342   9.205  0.0547 -0.1275  0.1411
11419PP      PP21523   7.940   1.669   2.842 -0.0806 -0.1296  0.1747
11420PP      PP21524   2.716   8.477   2.080  0.2012  0.0331  0.0161
11421PP      PP21525   3.814   5.593  10.088  0.1114 -0.0041 -0.0661
11422PP      PP21526   9.978  13.271  13.305  0.2532 -0.0910 -0.3568
11423PP      PP21527   1.568   0.299  10.828  0.3076 -0.1569 -0.1611
11424PP      PP21528  13.062   1.142  12.970  0.2081 -0.1939 -0.3001
11425PP      PP21529   2.074  15.293   9.918  0.2765 -0.3288 -0.0114
11426PP      PP21530   7.134   4.313   3.096 -0.0530 -0.0481 -0.0849
11427PP      PP21531   0.577   1.389  11.501 -0.1565 -0.0955  0.3821
11428PP      PP21532   0.583   6.063   0.836 -0.1106  0.1528  0.1687
11429PP      PP21533   1.721   3.178   0.516  0.0365 -0.0247  0.0935
11430PP      PP21534  14.404  12.154  12.483  0.0303 -0.1927  0.2588
11431PP      PP21535  12.908   7.808   3.703  0.3672 -0.1609 -0.2350
11432PP      PP21536  11.043   1.300  12.227  0.2311  0.0098 -0.0229
11433PP      PP21537   6.169  10.304   3.085  0.2039 -0.2465  0.3539
11434PP      PP21538   2.830   7.347   1.454  0.3395  0.0805  0.2558
11435PP      PP21539   7.706   5.702  11.517  0.0701  0.1234 -0.1775
11436PP      PP21540   4.784   3.443   3.283 -0.1121  0.0114  0.0087
11437PP      PP21541   4.929  10.802  12.111 -0.4230  0.0483 -0.0719
11438PP      PP21542  12.794  10.397   2.613  0.1419  0.2073  0.0873
11439PP      PP21543   0.015   6.270   1.819 -0.4580 -0.0150  0.0764
11440PP      PP21544   9.575   8.777   0.040 -0.2190  0.1462  0.1318
11441PP      PP21545   4.667   5.437   1.194  0.1700 -0.0154  0.1281
11442PP      PP21546   8.486  15.363   0.132  0.1085  0.0955 -0.0353
11443PP      PP21547   2.689  11.845   3.231  0.0911  0.2355  0.0353
11444PP      PP21548   3.512  12.396   2.235  0.0765  0.0053  0.1587
11445PP      PP21549  15.696  12.024   3.175 -0.0251 -0.1346  0.0733
11446PP      PP21550   3.609   2.188  13.249  0.2773 -0.1509 -0.2705
11447PP      PP21551   4.347  14.081   8.830  0.0179 -0.1892 -0.0142
11448PP      PP21552   4.979   6.322   0.213 -0.0842 -0.2938 -0.1195
11449PP      PP21553   9.591   8.240   2.641  0.1483 -0.0745 -0.1889
11450PP      PP21554   2.516   5.732  13.123 -0.2490 -0.1176  0.1813
11451PP      PP21555  13.930   9.095   4.084 -0.0117 -0.0895  0.1939
11452PP      PP21556  12.576   2.455   2.232 -0.0823 -0.0638  0.0398
11453PP      PP21557  15.808  10.389   3.729 -0.0343 -0.2322  0.0753
11454PP      PP21558  12.371  12.112   9.879  0.2679  0.0106  0.2033
11455PP      PP21559   3.129   7.337  10.698 -0.0355 -0.1753 -0.1090
11456PP      PP21560   1.279  10.231   2.222 -0.0036 -0.2690  0.1204
11457PP      PP21561  13.580   2.848   3.068 -0.0960  0.1435 -0.1110
11458PP      PP21562  14.379  13.238  12.400 -0.1045  0.2003  0.1313
11459PP      PP21563   0.449   4.571  13.354  0.0353  0.0876  0.1007
11460PP      PP21564   8.791   1.317   9.732 -0.0055  0.1063  0.3455
11461PP      PP21565   7.756   4.801  11.215  0.0015  0.0547 -0.0737
11462PP      PP21566  15.628  12.025   3.678 -0.0043 -0.0684 -0.0527
11463PP      PP21567   1.345   6.254  10.359  0.1246 -0.0848  0.0500
11464PP      PP21568  12.574   9.413   0.913  0.2234 -0.1103  0.1078
11465PP      PP21569   9.394   4.290  10.533  0.0361 -0.0335 -0.1475
11466PP      PP21570  13.612   4.397   1.402  0.0208  0.3018 -0.0608
11467PP      PP21571  10.804   8.319  12.242 -0.0242  0.1185 -0.2472
11468PP      PP21572   0.024   1.499  10.774  0.1135 -0.0115  0.0625
11469PP      PP21573   3.498  15.203   4.813  0.0753  0.0010 -0.1177
11470PP      PP21574   8.055   1.969  10.739  0.1731  0.1386  0.0428
11471PP      PP21575   8.614   1.494  12.284  0.0855  0.1959 -0.2034
11472PP      PP21576   8.384  14.235  11.794 -0.2196  0.4145  0.0816
11473PP      PP21577   1.032   5.015   1.743  0.3828 -0.2070 -0.2255
11474PP      PP21578   9.303  15.605  11.285 -0.2454 -0.3075 -0.0149
11475PP      PP21579   5.498   5.828  11.953 -0.2068  0.2619 -0.1146
11476PP      PP21580   0.878   2.730   2.174 -0.1073  0.2262 -0.3567
11477PP      PP21581   8.569   1.341  10.851  0.3497  0.0656 -0.0828
11478PP      PP21582   0.670  14.578   9.049  0.1575  0.1274  0.0819
11479PP      PP21583   6.873  13.994  12.851  0.0412 -0.1305  0.0266
11480PP      PP21584  11.323  13.452  10.821 -0.1384 -0.0891  0.1690
11481PP      PP21585   9.784  11.683   9.384  0.2144  0.0535  0.0178
11482PP      PP21586  12.647  10.205  11.626  0.0704  0.2369 -0.1304
11483PP      PP21587   9.198  10.482  12.864 -0.3447  0.0974  0.0007
11484PP      PP21588  12.337   1.183   9.539  0.1717  0.0232  0.2763
11485PP      PP21589   8.725  11.894  11.165  0.3079 -0.4138  0.0633
11486PP      PP21590   8.362  12.954   1.642 -0.0031 -0.0410 -0.0261
11487PP      PP21591   1.478  14.223   0.097 -0.0691  0.0540 -0.1763
11488PP      PP21592   3.006   9.409  12.797  0.0506 -0.0938 -0.0486
11489PP      PP21593  13.076  10.800   3.480 -0.0429 -0.0690  0.3801
11490PP      PP21594   1.249  11.903  11.257 -0.0400  0.0746 -0.0179
11491PP      PP21595  13.404  10.453   3.633  0.1462 -0.1789 -0.1195
11492PP      PP21596   7.789   9.052  12.839  0.1462 -0.2822  0.1441
11493PP      PP21597   6.907   8.524   2.502  0.0711 -0.1072 -0.0524
11494PP      PP21598  12.612  11.394  10.551  0.1828 -0.1081  0.1818
11495PP      PP21599  12.360   3.134  13.211  0.0708  0.1084 -0.2148
11496PP      PP21600  12.875   9.513   2.730  0.0040  0.3816 -0.2811
11497PP      PP21601   8.393   1.056   2.427  0.0981 -0.0851  0.0753
11498PP      PP21602  13.299  13.393   3.339 -0.0037  0.0270  0.2020
11499PP      PP21603  12.699   0.810  11.764  0.1523  0.0636  0.2428
11500PP      PP21604  15.543   7.300   5.233  0.0049 -0.1065 -0.4224
11501PP      PP21605  11.244   0.664   1.543 -0.1346 -0.0996 -0.0650
11502PP      PP21606   4.803   6.589   4.190 -0.0169 -0.1999  0.3834
11503PP      PP21607   8.729   8.065   4.211  0.1406  0.2260 -0.0194
11504PP      PP21608  15.744   0.948   4.831  0.1574 -0.1466 -0.1013
11505PP      PP21609  10.051   0.812   4.041 -0.0633  0.0608  0.0295
11506PP      PP21610   9.263   3.563   3.881 -0.1188  0.0469  0.1045
11507PP      PP21611   5.444  11.344  11.755 -0.1167 -0.1331  0.2134
11508PP      PP21612   4.083  13.074   1.528  0.0757 -0.2221 -0.3184
11509PP      PP21613  14.528   4.496  11.444  0.2524  0.4082 -0.2053
11510PP      PP21614   8.843   7.480   4.851  0.0302 -0.1502 -0.1878
11511PP      PP21615  13.832  10.695   0.423  0.0509 -0.0445 -0.0821
11512PP      PP21616   2.553   4.740   2.096 -0.2297  0.1245 -0.1227
11513PP      PP21617  13.532   1.684  11.606 -0.1603 -0.0372 -0.1814
11514PP      PP21618   3.318   9.148   5.210  0.0345  0.3186  0.0864
11515PP      PP21619   1.554   9.614   9.814 -0.2259 -0.0599 -0.1970
11516PP      PP21620   4.267   5.626   3.217  0.0955 -0.1863 -0.2547
11517PP      PP21621   3.677  13.504  13.042 -0.0280  0.3001 -0.0445
11518PP      PP21622   4.611   2.341   9.520 -0.0922  0.0844 -0.1583
11519PP      PP21623   7.623  10.044  11.965 -0.0516 -0.0969 -0.0765
11520PP      PP21624   6.136   2.951   3.462  0.1198  0.0161 -0.1449
11521PP      PP21625   1.987   7.502   4.274 -0.2165 -0.0558  0.0035
11522PP      PP21626   7.298   1.163  10.107  0.2548  0.0268 -0.0375
11523PP      PP21627  13.892   5.538   3.997 -0.1900  0.0298 -0.0238
11524PP      PP21628  11.841   8.542  12.314 -0.0160 -0.0531  0.0834
11525PP      PP21629   2.026   6.489   9.694  0.1769 -0.2734 -0.3514
11526PP      PP21630   9.991  11.745   2.129 -0.0648  0.0209 -0.3721
11527PP      PP21631   5.418   7.609   9.810  0.2151 -0.1360  0.1968
11528PP      PP21632  15.144   1.117  11.080  0.2873 -0.1241 -0.1118
11529PP      PP21633  11.960   9.377  10.068  0.2149 -0.5527  0.2469
11530PP      PP21634   2.085   6.404  11.718  0.1011 -0.1529  0.0257
11531PP      PP21635   9.203  12.324   0.044 -0.3703 -0.1059 -0.1914
11532PP      PP21636   5.044   9.210   4.464 -0.4912 -0.0707  0.0176
11533PP      PP21637   1.637   9.839  13.131  0.1436 -0.2603 -0.1843
11534PP      PP21638   9.942  11.407   0.663 -0.2729 -0.0516 -0.3499
11535PP      PP21639  14.010   1.725  10.828 -0.1699  0.2104  0.1605
11536PP      PP21640  15.589   0.176  10.912 -0.2852 -0.2070  0.0236
11537PP      PP21641  13.788   7.036  11.663  0.0054  0.1836  0.3329
11538PP      PP21642   4.158  14.745   3.637 -0.0728 -0.3891  0.1910
11539PP      PP21643   3.870  12.980   3.938  0.0786  0.1615  0.0913
11540PP      PP21644  13.418  10.940  10.084  0.1235 -0.3202 -0.0183
11541PP      PP21645   1.368  15.893   4.762  0.1470 -0.3374 -0.1515
11542PP      PP21646   0.167   0.763   8.976 -0.1637 -0.0948 -0.2213
11543PP      PP21647  15.183   0.358  10.613 -0.2832 -0.2419  0.1489
11544PP      PP21648   4.985  13.026   3.137 -0.1544 -0.2049 -0.1539
11545PP      PP21649  12.600   5.912   0.392  0.0824 -0.1913 -0.1679
11546PP      PP21650   2.399   1.700   0.371  0.0467  0.2671 -0.2707
11547PP      PP21651   4.801  11.189   1.751 -0.1262 -0.2658 -0.1890
11548PP      PP21652  15.643  14.602   9.733  0.2052  0.0270  0.1299
11549PP      PP21653  11.679   5.293   9.512  0.2362  0.0126 -0.2109
11550PP      PP21654   6.326  11.637   9.323 -0.3791 -0.1977 -0.2795
11551PP      PP21655   2.381   2.364   0.946 -0.0018  0.1412  0.0571
11552PP      PP21656   6.825   5.607   1.963  0.2316  0.4106 -0.1520
11553PP      PP21657   3.637  13.242  10.901  0.3585 -0.0959  0.0137
11554PP      PP21658   0.312  10.927  10.266  0.0093 -0.0965 -0.0814
11555PP      PP21659  13.819  14.799   3.759 -0.2863  0.0566  0.2731
11556PP      PP21660   9.961   1.133  12.278  0.1651  0.3614 -0.2599
11557PP      PP21661   3.471  10.565  10.966 -0.3189 -0.1675 -0.5353
11558PP      PP21662   5.800  13.415   9.725  0.2839  0.0560 -0.0588
11559PP      PP21663   4.292   5.409   4.637  0.1198  0.1508  0.0876
11560PP      PP21664   6.808   7.020   3.196 -0.0562 -0.1709  0.0530
11561PP      PP21665   7.115   8.649   1.998 -0.1686  0.0991 -0.0702
11562PP      PP21666   1.593  12.644   3.464 -0.0644 -0.2428  0.1665
11563PP      PP21667   1.980   6.546   1.142 -0.1363  0.0920  0.3129
11564PP      PP21668  12.906   7.780  11.005  0.1207 -0.0552  0.0405
11565PP      PP21669   6.833   8.007   3.408  0.0692  0.0890  0.1472
11566PP      PP21670   5.940  15.278   2.185  0.2788  0.0101 -0.2705
11567PP      PP21671   1.139   7.721   2.130  0.0603 -0.2374 -0.1357
11568PP      PP21672   7.673   9.254  10.156 -0.1253 -0.0805 -0.0392
11569PP      PP21673   4.869   2.409   9.942 -0.3886 -0.2569 -0.0482
11570PP      PP21674   8.117  11.088  10.687  0.1308  0.2638  0.1509
11571PP      PP21675   7.635   9.789  10.240  0.0633  0.0150  0.1713
11572PP      PP21676   1.285   3.499  10.924 -0.0679  0.2986 -0.0019
11573PP      PP21677   3.972  13.621  10.895 -0.2404  0.1014  0.2752
11574PP      PP21678   6.840   5.250   2.577 -0.2759 -0.0914  0.2009
11575PP      PP21679  10.415   5.459   2.467 -0.3933  0.0207  0.0770
11576PP      PP21680   1.176   4.360  11.426  0.2508  0.1460 -0.0822
11577PP      PP21681  14.414   6.887   1.118 -0.0075  0.1114 -0.1602
11578PP      PP21682   8.790   9.762   9.230  0.0801 -0.0206 -0.2964
11579PP      PP21683   4.032   9.931   5.030 -0.2164  0.0112 -0.1502
11580PP      PP21684  11.452   6.229   1.336 -0.2567 -0.1356  0.2876
11581PP      PP21685   6.116   9.482  10.361  0.1165 -0.0151 -0.0188
11582PP      PP21686  12.010   6.178   0.495 -0.1037  0.0842  0.0388
11583PP      PP21687   0.090  14.042  11.187  0.0280  0.3225 -0.1854
11584PP      PP21688  13.194   1.328  10.704  0.1167  0.1081 -0.0810
11585PP      PP21689   4.787   5.328   4.956 -0.3819  0.0385  0.0641
11586PP      PP21690   0.645   7.738   2.192 -0.0326 -0.0546  0.0417
11587PP      PP21691   2.240   7.222   5.464  0.0267 -0.1683  0.1563
11588PP      PP21692   1.007  13.398  10.012  0.1583 -0.4693  0.0243
11589PP      PP21693   5.725   4.572   0.901 -0.1114 -0.2967 -0.1619
11590PP      PP21694  10.785   4.515   8.385  0.2359  0.3291 -0.2116
11591PP      PP21695   5.945  12.984   9.220  0.0009 -0.2288  0.0709
11592PP      PP21696   5.594   1.956   2.185  0.1771 -0.1614 -0.1137
11593PP      PP21697   1.339   8.893   3.086 -0.3398 -0.2935 -0.0889
11594PP      PP21698   6.762  15.864   1.954  0.2024  0.2273  0.1033
11595PP      PP21699   3.093   1.094  12.816  0.0367  0.1649 -0.0937
11596PP      PP21700   4.857  15.190  13.074 -0.0047  0.0715 -0.1337
11597PP      PP21701  10.248   0.755  10.835  0.0051  0.0511 -0.0542
11598PP      PP21702   6.153  12.516   2.562 -0.1398  0.4215  0.2656
11599PP      PP21703   9.953   2.551   9.791  0.1185 -0.4744  0.0664
11600PP      PP21704   8.976   0.901   0.087  0.0819 -0.0317 -0.0436
11601PP      PP21705   9.640   7.630   4.062 -0.1581  0.2854  0.0693
11602PP      PP21706   7.480   9.662   0.363  0.1854 -0.0502 -0.0105
11603PP      PP21707   4.676  11.828   9.547  0.1175 -0.1325  0.1524
11604PP      PP21708  15.176   3.300   9.610  0.1012  0.1194  0.5924
11605PP      PP21709  15.107  13.648   2.218  0.2077 -0.0962 -0.0633
11606PP      PP21710  12.641  15.488   0.547  0.3696  0.3087  0.1512
11607PP      PP21711  12.058   6.502   4.990 -0.1128 -0.2651  0.0540
11608PP      PP21712  11.993   5.612   9.189  0.2354 -0.3091 -0.0556
11609PP      PP21713   0.257  11.555  10.390 -0.2025 -0.2003 -0.1349
11610PP      PP21714  13.012  14.622  11.622  0.1932 -0.0316  0.0772
11611PP      PP21715   2.551   8.942   0.616  0.0407  0.0826  0.0957
11612PP      PP21716  13.566   2.467   8.955 -0.0182 -0.2477  0.0645
11613PP      PP21717  14.762   5.368   4.396  0.0840  0.0376  0.1181
11614PP      PP21718   1.185   1.445   9.292  0.2807 -0.0310  0.0495
11615PP      PP21719   8.605   0.835   1.689  0.1350 -0.1750 -0.0054
11616PP      PP21720  14.164   5.089   9.184 -0.1497 -0.3184 -0.2377
11617PP      PP21721   3.699  13.573   1.656 -0.0009  0.0717  0.0809
11618PP      PP21722  11.476   5.599   2.672  0.0716  0.1350  0.1795
11619PP      PP21723  13.380   9.595  12.665 -0.0974 -0.2716 -0.1050
11620PP      PP21724   4.070   8.533   3.852  0.1337 -0.1170  0.1702
11621PP      PP21725  15.721  14.087   1.251  0.1509  0.1533 -0.0756
11622PP      PP21726  13.018   0.753   2.275  0.1352 -0.0453 -0.0411
11623PP      PP21727   8.956   1.774   9.535 -0.1300  0.3331  0.5079
11624PP      PP21728   7.499   3.620  10.064 -0.0101  0.0932  0.0412
11625PP      PP21729  10.511   7.497  12.825  0.0314 -0.1366 -0.1619
11626PP      PP21730   3.632  13.104   1.311  0.1803  0.1170  0.0272
11627PP      PP21731  13.565   7.625   4.331 -0.0133  0.1165 -0.2050
11628PP      PP21732  14.935   4.748  10.999 -0.0589  0.2997 -0.1856
11629PP      PP21733  12.719   5.467   0.097 -0.0717 -0.2268 -0.0296
11630PP      PP21734   1.895  10.425   1.023  0.0642 -0.1352 -0.1298
11631PP      PP21735   1.545  15.689  11.721 -0.0526  0.1500 -0.3597
11632PP      PP21736  14.444  14.511  12.991  0.0651  0.2463  0.0648
11633PP      PP21737   5.208   2.690   0.372 -0.3858  0.0555  0.0677
11634PP      PP21738  10.946  15.409   2.348  0.0533 -0.0326 -0.0765
11635PP      PP21739  12.547   0.836   4.131 -0.0978  0.1215 -0.1127
11636PP      PP21740  13.801   9.557   0.806 -0.1614 -0.0258 -0.2110
11637PP      PP21741   2.569  13.395   3.446 -0.1278  0.1879  0.2140
11638PP      PP21742  12.951  13.969   1.271 -0.0113  0.1168 -0.1013
11639PP      PP21743  14.729   4.605  11.895  0.1221 -0.0274  0.2675
11640PP      PP21744   7.526  15.875  12.985 -0.2068  0.1571  0.0029
11641PP      PP21745  15.883   1.778   3.985  0.5531 -0.0168  0.3036
11642PP      PP21746   2.389   8.387   3.369 -0.3529 -0.3462 -0.1078
11643PP      PP21747  14.546   2.625   3.200  0.0869 -0.1449  0.3110
11644PP      PP21748  12.651  11.890  10.289 -0.3195  0.3510  0.0836
11645PP      PP21749   5.868   8.194   1.671 -0.1596 -0.1793  0.1211
11646PP      PP21750   2.641  14.811   3.070  0.1420  0.3375  0.0447
11647PP      PP21751   3.869   7.777  11.712  0.3536  0.1844  0.2278
11648PP      PP21752   3.811   7.789  13.387 -0.0938  0.1220  0.0096
11649PP      PP21753  11.985   0.847   1.811  0.0365  0.1415 -0.0162
11650PP      PP21754   9.945  13.837  12.903  0.0169 -0.0780  0.1441
11651PP      PP21755   1.634   9.339   3.747 -0.0210  0.2478 -0.0346
11652PP      PP21756  15.441  10.261   2.891  0.3874 -0.5085 -0.1609
11653PP      PP21757  13.648  11.123  13.453  0.0875 -0.2588  0.4167
11654PP      PP21758   6.054  10.442   3.909  0.2014  0.2489  0.0540
11655PP      PP21759   7.120   5.991   4.098 -0.0656  0.0226  0.0115
11656PP      PP21760   4.615   1.902   1.554  0.3896  0.1852  0.0804
11657PP      PP21761   1.997  13.898   2.458  0.0776  0.1057 -0.3151
11658PP      PP21762  10.950  14.165  11.483  0.0221  0.0019 -0.4864
11659PP      PP21763   1.867  12.018  12.521 -0.2259 -0.1236 -0.2377
11660PP      PP21764   6.109   1.329   8.421  0.0998 -0.0381  0.0678
11661PP      PP21765   7.036   7.172   9.150  0.0145  0.1122 -0.0386
11662PP      PP21766  14.635   1.817   0.103  0.2137 -0.0642  0.1514
11663PP      PP21767  12.040   8.434   0.063 -0.0784  0.0555 -0.1003
11664PP      PP21768  14.064   7.772  10.310  0.0951  0.0605 -0.4404
11665PP      PP21769   4.304  11.117   4.449  0.1816  0.2296  0.1425
11666PP      PP21770   0.449   1.335   3.106  0.2715 -0.0775 -0.2407
11667PP      PP21771   7.746  10.732  10.696 -0.4137  0.2199  0.0030
11668PP      PP21772   8.875  11.327   3.176  0.0712 -0.3486  0.1862
11669PP      PP21773  15.353   7.745   3.167  0.2384  0.0975 -0.2211
11670PP      PP21774  15.053   9.823  11.019  0.1206 -0.0567 -0.0281
11671PP      PP21775   9.975   8.761   9.486 -0.0079 -0.2079  0.3289
11672PP      PP21776   2.822   6.165  13.045 -0.1762  0.0884 -0.2576
11673PP      PP21777   3.903   6.613   0.198 -0.1253 -0.1563  0.1076
11674PP      PP21778  11.752   7.351  12.294  0.2303  0.1249  0.0310
11675PP      PP21779   7.697   7.610  11.114 -0.2821 -0.2649  0.2750
11676PP      PP21780   2.081  12.108   9.331  0.2106  0.0914 -0.1055
11677PP      PP21781  10.151  11.386   2.944 -0.2337 -0.0645 -0.0308
11678PP      PP21782   8.179  15.888   9.836  0.1209  0.0734  0.1545
11679PP      PP21783  11.779   6.779   9.999 -0.1496  0.1074 -0.0204
11680PP      PP21784   5.664   2.485   4.438  0.1618 -0.1929  0.3198
11681PP      PP21785   5.129   4.240   4.546 -0.1108 -0.3245  0.0318
11682PP      PP21786  10.644   6.089  13.331  0.0644  0.2337  0.1485
11683PP      PP21787   7.339  14.561  10.964 -0.2903  0.0471  0.1472
11684PP      PP21788   8.156   6.876  10.954  0.2510  0.1226  0.1682
11685PP      PP21789  14.373   0.715   3.470  0.0210  0.0713  0.2536
11686PP      PP21790  15.541   7.967  11.945 -0.1094  0.0984 -0.0524
11687PP      PP21791  13.828   4.115   9.882 -0.1389  0.2223  0.0662
11688PP      PP21792  14.421  14.191   1.975 -0.0789  0.1055 -0.1759
11689PP      PP21793   9.613  11.032   0.565 -0.0600 -0.0856  0.0609
11690PP      PP21794   7.922   7.552  12.635 -0.0156 -0.0989  0.4134
11691PP      PP21795  11.325   7.769   4.655  0.0480  0.0271 -0.0350
11692PP      PP21796  11.942  10.776  12.953 -0.1632  0.1778 -0.0103
11693PP      PP21797   8.328  12.382  12.934  0.0764 -0.2888  0.0018
11694PP      PP21798   0.439  14.659   0.801 -0.0813 -0.1944 -0.2232
11695PP      PP21799   2.865   3.863  12.776  0.1033 -0.2039  0.1516
11696PP      PP21800  11.336  12.300   8.240 -0.1087  0.0242 -0.0865
11697PP      PP21801   6.823   4.119  13.324  0.1559  0.0524  0.0326
11698PP      PP21802   8.391  12.762   4.639  0.0693  0.1168  0.2917
11699PP      PP21803   8.883  11.510  12.037 -0.3208 -0.2588 -0.0404
11700PP      PP21804  12.530   5.068  10.906 -0.0419  0.4100  0.2570
11701PP      PP21805   6.779  13.571   8.975  0.0689  0.0850  0.0121
11702PP      PP21806   1.203   3.017   4.242  0.0654 -0.0902  0.0172
11703PP      PP21807   4.003   5.860   4.516  0.1569  0.0677 -0.0679
11704PP      PP21808  11.962   9.889   2.478  0.0215  0.1253  0.0734
11705PP      PP21809   5.363  15.118   1.089 -0.0502  0.2004 -0.2028
11706PP      PP21810   1.348   6.953  11.130 -0.2138  0.3723  0.0167
11707PP      PP21811   5.745  13.468   1.191 -0.1497 -0.1749  0.0473
11708PP      PP21812  14.142   9.569   4.965  0.1431  0.0893 -0.0991
11709PP      PP21813  10.099  12.053   9.476  0.0547 -0.1071 -0.3409
11710PP      PP21814   4.667   3.782   4.177  0.1151  0.0592  0.1593
11711PP      PP21815   0.561  13.612  10.834 -0.1114  0.1950 -0.1553
11712PP      PP21816  11.009   3.044  10.531  0.2834  0.0514  0.2982
11713PP      PP21817   0.025   4.007  12.564 -0.3859  0.1004  0.1613
11714PP      PP21818   3.742  11.151   3.773 -0.2516  0.0201  0.0740
11715PP      PP21819   1.146  10.112   0.356 -0.3831 -0.0823 -0.3465
11716PP      PP21820   1.646   2.268   2.114  0.0851  0.2935  0.0658
11717PP      PP21821   7.321   2.404   4.294  0.2184  0.1982  0.2411
11718PP      PP21822   6.754  15.340   2.698  0.0754  0.1100 -0.0368
11719PP      PP21823  11.666   6.632   4.648  0.2260  0.0884  0.1869
11720PP      PP21824   7.239  12.135  10.763 -0.0325 -0.2300 -0.1814
11721PP      PP21825  12.633  12.100   1.670 -0.0053  0.0380 -0.0220
11722PP      PP21826   1.833   0.167   9.006  0.2615 -0.0121  0.1930
11723PP      PP21827  11.412   2.108   0.856  0.4023 -0.0504 -0.2733
11724PP      PP21828   1.738   1.295  10.942 -0.1530  0.0606  0.0086
11725PP      PP21829   7.492   7.709  13.362 -0.0985 -0.4496  0.2422
11726PP      PP21830  14.842   4.846   1.985 -0.0127  0.3184  0.2582
11727PP      PP21831   1.859   5.440   9.392 -0.0544  0.3159 -0.1161
11728PP      PP21832   9.979  15.525   1.475 -0.0657 -0.2070 -0.1630
11729PP      PP21833   7.698   5.149  12.834  0.0804  0.2101 -0.0815
11730PP      PP21834  10.333   9.322  10.714 -0.1158  0.0909 -0.0847
11731PP      PP21835   1.880  11.737   9.950 -0.2052 -0.0808  0.0907
11732PP      PP21836  10.905   8.426   9.171  0.2277  0.1024 -0.0284
11733PP      PP21837   4.006   6.134   5.093  0.4171 -0.0123 -0.0961
11734PP      PP21838  13.318  10.557   2.506  0.0679 -0.1815 -0.2427
11735PP      PP21839  11.270   4.709   2.924  0.1028  0.0927  0.0943
11736PP      PP21840   3.988  12.732   9.272 -0.0148  0.2446  0.1770
11737PP      PP21841  13.079   8.888   4.379 -0.1152  0.0009  0.1164
11738PP      PP21842   8.628  10.669   2.237  0.0211 -0.0650  0.0240
11739PP      PP21843   2.391   2.462   0.109  0.1065 -0.0662 -0.1241
11740PP      PP21844  15.134   5.439   9.224 -0.1396  0.0273 -0.0659
11741PP      PP21845   1.111  12.145   2.187  0.0195  0.0581 -0.0839
11742PP      PP21846   3.694  12.740   1.837 -0.0954 -0.1759  0.1814
11743PP      PP21847   2.966  15.319  10.623  0.0492 -0.1358  0.0263
11744PP      PP21848  13.583  13.207   2.749 -0.1521  0.0579 -0.3272
11745PP      PP21849  11.744   6.653  11.534  0.1161 -0.0894  0.1040
11746PP      PP21850   4.387  11.581  13.080  0.1256 -0.0649 -0.0183
11747PP      PP21851   1.855   9.388   4.698  0.0074  0.3822 -0.2763
11748PP      PP21852  12.016   9.422  10.560 -0.1560  0.1446 -0.0879
11749PP      PP21853   1.348   0.332   2.872  0.4312  0.5321  0.0159
11750PP      PP21854  10.631   5.916   1.647 -0.2029 -0.1475  0.1217
11751PP      PP21855  14.606   3.373   1.983  0.0813 -0.0137 -0.1410
11752PP      PP21856  13.336   7.084   8.944  0.1223 -0.0165  0.1565
11753PP      PP21857  15.797   9.759  11.632 -0.2374  0.1380  0.1076
11754PP      PP21858   3.009   7.372  11.708  0.1118  0.0311 -0.1514
11755PP      PP21859  15.552   7.510   3.990  0.3281  0.1057  0.0353
11756PP      PP21860  11.658   5.737  11.509 -0.1457  0.2079  0.1753
11757PP      PP21861   2.334   9.811  12.399 -0.2938  0.2052  0.1107
11758PP      PP21862   3.981   0.329   3.789 -0.0997 -0.0314  0.0159
11759PP      PP21863  15.573   5.718  12.524 -0.0938 -0.0086  0.2597
11760PP      PP21864  14.084   8.153  11.987  0.0843 -0.0986  0.0898
11761PP      PP21865   7.957   0.570   0.783  0.1427  0.0836  0.1641
11762PP      PP21866   6.636   3.405   8.298  0.0894 -0.0082 -0.0756
11763PP      PP21867   0.230   7.194   3.491 -0.0613  0.4029 -0.0905
11764PP      PP21868   8.589  14.951  10.441 -0.3785 -0.0089  0.0516
11765PP      PP21869  12.261  13.143   8.255  0.0186 -0.4735 -0.0311
11766PP      PP21870  12.873   4.433   3.161 -0.2182 -0.0900  0.5169
11767PP      PP21871  15.644   1.386   4.604 -0.0459 -0.0537  0.2415
11768PP      PP21872  11.747   7.773   9.956 -0.1483 -0.0118  0.0320
11769PP      PP21873  14.050   1.765  10.221  0.2124 -0.1641  0.0813
11770PP      PP21874  12.916  15.827  13.166 -0.0599  0.1923  0.0266
11771PP      PP21875  15.536  14.356  12.091 -0.2768 -0.0608 -0.2485
11772PP      PP21876   5.546   3.027  13.056  0.3277 -0.1925 -0.1696
11773PP      PP21877   4.831  15.697   9.284  0.0402  0.1540 -0.0866
11774PP      PP21878   5.281  11.172   1.580  0.0365  0.0346  0.1842
11775PP      PP21879  14.943   9.474   3.443  0.0786  0.1281  0.2318
11776PP      PP21880  10.591   3.626   2.466 -0.2753  0.1043  0.0341
11777PP      PP21881   0.025   7.146   2.543 -0.0831 -0.1858  0.1179
11778PP      PP21882   0.245  15.660  11.462  0.1870 -0.1490 -0.0272
11779PP      PP21883   7.418   9.557  11.978  0.4240 -0.2508 -0.0837
11780PP      PP21884   4.482   4.936  11.196 -0.1449 -0.0432 -0.1006
11781PP      PP21885   4.714   7.038   2.945 -0.0267 -0.0874  0.3464
11782PP      PP21886   6.944   8.326   0.105  0.1601  0.0676  0.1827
11783PP      PP21887   7.195   8.910   4.916 -0.1437  0.2973 -0.1647
11784PP      PP21888   9.615   0.957  10.354 -0.1746  0.1089 -0.0687
11785PP      PP21889   3.219   4.968   3.701 -0.0066  0.2993  0.1877
11786PP      PP21890  12.276   4.985  10.431  0.2153 -0.2466  0.0178
11787PP      PP21891  13.809   0.336   2.408  0.1545  0.1591  0.4161
11788PP      PP21892  14.207   4.120   1.535 -0.3384 -0.1742  0.1389
11789PP      PP21893   7.343  11.387   0.566  0.1670  0.0163  0.0706
11790PP      PP21894   2.977  14.119   2.151  0.1271 -0.0581  0.2060
11791PP      PP21895  14.942   0.337  12.817 -0.1711 -0.0460 -0.0081
11792PP      PP21896   3.860  14.397  10.010 -0.3902  0.2126 -0.2476
11793PP      PP21897   2.124   3.047   2.157 -0.1077  0.0483 -0.0939
11794PP      PP21898  15.226   6.891   3.340 -0.1910 -0.0980 -0.0179
11795PP      PP21899   7.413  14.698   3.840  0.1057 -0.2580  0.1378
11796PP      PP21900   0.824   5.936  13.051 -0.1833 -0.3831  0.2288
11797PP      PP21901  15.199  11.447   1.371  0.1421 -0.0744  0.0424
11798PP      PP21902   0.327   3.378   9.788 -0.0052  0.1086 -0.0747
11799PP      PP21903   1.552   4.723   1.573  0.2922  0.2459  0.3419
11800PP      PP21904   4.341   9.739   1.347 -0.3294  0.0729  0.2905
11801PP      PP21905   9.225   6.189   1.806 -0.3443  0.1418  0.1269
11802PP      PP21906   6.918  13.088   0.814  0.1379 -0.3526  0.1876
11803PP      PP21907   9.503   3.371  12.069 -0.2539 -0.0001 -0.1169
11804PP      PP21908   1.355   3.663   4.894 -0.2027 -0.0135  0.1749
11805PP      PP21909   7.808   2.850  10.899 -0.2066  0.3418  0.1735
11806PP      PP21910   5.672  13.116   2.067  0.1188 -0.2675 -0.2488
11807PP      PP21911  14.463  10.521   1.690  0.1968 -0.0757 -0.1465
11808PP      PP21912   7.051   9.465   0.466  0.2327  0.1309  0.2859
11809PP      PP21913  13.348   3.020   9.535  0.0598  0.0119 -0.1477
11810PP      PP21914  15.299   0.305   2.270 -0.1001 -0.1061 -0.0832
11811PP      PP21915   7.497  15.611  10.454  0.1549 -0.2592  0.0345
11812PP      PP21916   7.952   4.307   2.788 -0.0340 -0.2460  0.2082
11813PP      PP21917   1.761   8.498   3.138  0.0541 -0.0298 -0.0534
11814PP      PP21918   7.465  12.262   4.326  0.3544 -0.0773  0.0078
11815PP      PP21919  15.076  13.166  10.588 -0.1055  0.2757 -0.1510
11816PP      PP21920  12.674   4.280   9.772 -0.1275  0.3141 -0.2045
11817PP      PP21921   2.996   0.643   2.467  0.1643  0.1361  0.1330
11818PP      PP21922  14.711   7.528  13.438 -0.5816  0.0532  0.3496
11819PP      PP21923  15.556   2.814  11.032 -0.2625 -0.1367  0.1113
11820PP      PP21924  13.073   3.425   4.655 -0.1359 -0.0910 -0.0568
11821PP      PP21925   1.109   9.939  13.334  0.0618 -0.3453  0.2241
11822PP      PP21926  14.138  15.506  11.721 -0.0072 -0.1921  0.0513
11823PP      PP21927   3.629   1.975   1.126 -0.2071  0.2094 -0.1128
11824PP      PP21928  11.660  11.737  10.534 -0.1132  0.0905  0.0070
11825PP      PP21929   6.567   4.118   8.826 -0.0532  0.1467 -0.2628
11826PP      PP21930  12.706  12.645  12.980 -0.0935 -0.3029 -0.3409
11827PP      PP21931  10.349   6.546   0.721 -0.1580  0.0991  0.3634
11828PP      PP21932   1.764   5.824   3.764  0.1475 -0.1233  0.0809
11829PP      PP21933   9.349  15.473  11.782  0.3377  0.1275  0.3238
11830PP      PP21934  10.449   5.822  11.561  0.0225  0.0550 -0.0249
11831PP      PP21935   0.697   1.952   9.552  0.1527  0.3950  0.2666
11832PP      PP21936   9.301  10.203   9.782  0.1706 -0.1939 -0.0405
11833PP      PP21937  13.801  14.890   9.234 -0.0977  0.0955 -0.1021
11834PP      PP21938   9.681  10.144   0.625 -0.1538 -0.2008  0.1444
11835PP      PP21939   2.068   5.995   2.688 -0.0968 -0.0171 -0.0735
11836PP      PP21940   2.405   3.071  11.734  0.0038  0.1047 -0.0741
11837PP      PP21941  12.552   0.795   1.032  0.3242  0.2917 -0.1848
11838PP      PP21942   9.667   5.795  13.035  0.4112 -0.0702 -0.1994
11839PP      PP21943   0.390   5.172  10.156  0.4004 -0.1585  0.1383
11840PP      PP21944  13.678  10.233  12.653 -0.0860  0.2316  0.1402
11841PP      PP21945   6.958  14.692   1.098  0.0201 -0.1094 -0.1261
11842PP      PP21946   1.607  12.955   2.254  0.0071 -0.3584  0.2204
11843PP      PP21947   4.778   7.367   2.091 -0.3030  0.0735  0.3842
11844PP      PP21948   6.882   9.083   0.829  0.1906  0.0520  0.2294
11845PP      PP21949  11.795  11.184   1.162 -0.2568 -0.0983 -0.0170
11846PP      PP21950   8.354  12.696   3.642 -0.0318 -0.3731  0.0914
11847PP      PP21951  10.933  14.368  12.034 -0.0377  0.2676  0.0531
11848PP      PP21952  11.905  14.253  13.169 -0.0819  0.0096  0.3332
11849PP      PP21953   4.240  10.919   9.625 -0.0627  0.1203  0.0821
11850PP      PP21954   0.722  10.297  13.156 -0.0404 -0.1585  0.0328
11851PP      PP21955   2.438  12.694   0.340 -0.2477 -0.3139 -0.3707
11852PP      PP21956   5.008   8.879   4.008  0.0112 -0.1030 -0.1737
11853PP      PP21957   0.590   6.999   4.327  0.1554  0.1331 -0.1091
11854PP      PP21958  12.337  11.926  12.065  0.1584 -0.0071 -0.0235
11855PP      PP21959  12.507  12.510   0.615 -0.1151  0.5674  0.3175
11856PP      PP21960   5.002  12.185  10.390  0.2927  0.1508  0.0375
11857PP      PP21961  13.056   2.097  12.416 -0.2462 -0.2793 -0.2695
11858PP      PP21962   4.000  11.217   4.824 -0.2072  0.0697 -0.1383
11859PP      PP21963  13.098  13.115   2.676 -0.1561 -0.0609 -0.0734
11860PP      PP21964   4.946  10.750   1.488 -0.0952  0.1229 -0.3437
11861PP      PP21965  11.359  13.523   0.769 -0.1845  0.1241 -0.1689
11862PP      PP21966   7.238  15.465   2.597  0.0444  0.2243  0.2429
11863PP      PP21967   2.416   5.991  12.579 -0.0501  0.1268  0.0428
11864PP      PP21968   0.879   7.441   0.733  0.1772  0.0341  0.3496
11865PP      PP21969  10.363   2.045   3.926 -0.0929 -0.0904 -0.2468
11866PP      PP21970   2.138  11.887  10.784  0.0476  0.0694 -0.4537
11867PP      PP21971  13.391  12.213   2.021  0.1143  0.2923 -0.0110
11868PP      PP21972   3.471   2.492   0.726 -0.3980  0.1058  0.1042
11869PP      PP21973   4.859   5.124   4.393  0.0278  0.0972  0.0960
11870PP      PP21974   4.869   3.793   9.645  0.1179  0.2472  0.1548
11871PP      PP21975   6.741   7.991  11.114 -0.1333  0.0937 -0.0131
11872PP      PP21976  12.915  15.643  10.375 -0.0385 -0.3027  0.2911
11873PP      PP21977   9.383   0.967   0.693  0.1959  0.0546 -0.1710
11874PP      PP21978   7.923   8.392  11.831 -0.0828  0.3171 -0.0393
11875PP      PP21979   9.217  14.760   2.240  0.1516 -0.0584  0.0352
11876PP      PP21980  13.776   5.470  12.010 -0.1246 -0.2012  0.3899
11877PP      PP21981  11.348  15.694   2.416  0.1475  0.0821  0.0659
11878PP      PP21982   8.852   7.000  12.757  0.0858 -0.0609  0.0241
11879PP      PP21983   9.560   4.308   3.629  0.2819 -0.0487  0.0705
11880PP      PP21984  12.461  14.705   0.845 -0.1364 -0.1458 -0.2893
11881PP      PP21985   6.367  13.789   8.733  0.1350  0.4027 -0.1955
11882PP      PP21986  13.234   9.534   1.370  0.3203  0.3593 -0.3078
11883PP      PP21987  13.807   7.937   3.965 -0.3714  0.2749  0.0050
11884PP      PP21988  12.034   0.958   8.871 -0.3203 -0.1864 -0.0475
11885PP      PP21989   8.041   1.980  11.740  0.2874  0.1802 -0.0558
11886PP      PP21990  13.807  15.564   3.188  0.1912  0.2242  0.0181
11887PP      PP21991   3.151   4.413   9.493  0.1188 -0.0245 -0.1762
11888PP      PP21992  12.357   2.719  12.699 -0.2909  0.1716  0.0648
11889PP      PP21993  14.913   6.739   1.131 -0.0788 -0.0132 -0.1581
11890PP      PP21994   9.835  11.304   8.841 -0.0725 -0.0110 -0.0184
11891PP      PP21995  12.312  14.609   0.036  0.1272 -0.1910 -0.1238
11892PP      PP21996  13.150   2.730  13.261 -0.4049  0.0349  0.1078
11893PP      PP21997   1.357   7.528   3.032 -0.1165 -0.2007  0.2245
11894PP      PP21998   5.303   4.190   0.044  0.0035 -0.2025 -0.2036
11895PP      PP21999   7.124   7.382  13.432 -0.0341  0.1820  0.0372
11896PP      PP22000   0.623   5.166   9.699 -0.2171 -0.1475  0.0010
11897PP      PP22001   3.031   8.546  13.355 -0.2522 -0.2889  0.0526
11898PP      PP22002   5.472  12.156  10.580  0.3293 -0.0437  0.3444
11899PP      PP22003  10.377   4.699  12.993  0.0821  0.0517  0.1196
11900PP      PP22004  12.397   4.709   9.629 -0.1545  0.0639  0.0630
11901PP      PP22005  13.238  11.660   3.725 -0.1965  0.1566  0.4122
11902PP      PP22006  11.497   1.300   1.449  0.2951 -0.1074 -0.0298
11903PP      PP22007   1.999  11.128  12.531  0.0363 -0.0429 -0.1846
11904PP      PP22008   5.400  15.384   0.231  0.3217  0.0384  0.1548
11905PP      PP22009   3.695   2.209   9.162  0.1058  0.0188 -0.0756
11906PP      PP22010  13.153  12.626   2.261  0.1763 -0.2717  0.1011
11907PP      PP22011   0.891  11.079   0.078 -0.0541  0.0870 -0.1682
11908PP      PP22012  12.565  15.068   1.165 -0.0229  0.0286  0.0605
11909PP      PP22013   8.743   3.138  11.484 -0.2440 -0.0140 -0.1834
11910PP      PP22014  11.155   6.464   0.959  0.1375  0.0038 -0.1192
11911PP      PP22015  13.911   8.966   3.046 -0.1709  0.0644 -0.1916
11912PP      PP22016  13.715  13.952  10.730 -0.1467 -0.1877  0.2195
11913PP      PP22017   0.380   2.530  13.222  0.1237 -0.1359  0.1720
11914PP      PP22018   8.305  15.314  12.167 -0.0499  0.0848  0.2343
11915PP      PP22019   4.683  10.784   2.036  0.3099  0.4284 -0.1042
11916PP      PP22020  11.954   6.602   9.175  0.2463  0.2043  0.0089
11917PP      PP22021   3.874  13.972  12.945  0.1140  0.1784  0.2053
11918PP      PP22022  10.468   7.539  10.215 -0.1233 -0.1143 -0.2275
11919PP      PP22023  15.810   8.911  12.053  0.1285  0.0234  0.2570
11920PP      PP22024   4.364   2.605   9.910 -0.2068  0.3010 -0.0186
11921PP      PP22025   1.664   7.002  10.450 -0.0859  0.0741 -0.2658
11922PP      PP22026   6.812  10.615  10.212 -0.4226 -0.2976  0.1945
11923PP      PP22027   3.223  14.490   9.154 -0.1348  0.4432  0.0321
11924PP      PP22028  12.186   4.712  13.421  0.2194  0.1623 -0.0766
11925PP      PP22029  14.101   2.177   9.888 -0.2638  0.0143  0.0082
11926PP      PP22030  14.525  10.750   2.613  0.0794 -0.1912  0.4120
11927PP      PP22031   4.263   6.664   4.084 -0.0883  0.2074  0.0927
11928PP      PP22032  14.616  12.477   9.856  0.1630  0.1629 -0.1982
11929PP      PP22033   9.443   6.723   1.169 -0.2364  0.0456 -0.5044
11930PP      PP22034  10.818  10.204   0.189  0.0453  0.2526  0.0423
11931PP      PP22035   7.111   6.681   0.467  0.0358  0.0545  0.5468
11932PP      PP22036   5.513   6.727   3.252  0.0566  0.0455 -0.1961
11933PP      PP22037   9.077   2.232   2.206  0.0142 -0.3757  0.1112
11934PP      PP22038  15.181   3.703  11.816  0.0179 -0.1157  0.1247
11935PP      PP22039   0.690   5.470  13.101 -0.1917 -0.1121 -0.1678
11936PP      PP22040  14.710   9.142   1.198  0.0518 -0.0403 -0.0140
11937PP      PP22041  13.236  15.121  12.325 -0.1665 -0.0076 -0.0287
11938PP      PP22042   6.149   5.238  11.952 -0.0853  0.1466 -0.5211
11939PP      PP22043  13.636   3.775   2.096 -0.0331 -0.1377 -0.0325
11940PP      PP22044   0.806   2.204   0.802  0.3236  0.0919 -0.3692
11941PP      PP22045   2.097  11.283   1.849  0.0641 -0.0339  0.0500
11942PP      PP22046   9.636   5.446   8.841 -0.3545  0.2761  0.1021
11943PP      PP22047  13.826   2.523   4.349  0.2850  0.0493 -0.1676
11944PP      PP22048  11.881  10.733   0.864 -0.1219  0.0695 -0.2752
11945PP      PP22049   5.764  11.281   1.221 -0.1693  0.2616 -0.2378
11946PP      PP22050  13.584  13.998  12.096  0.0512  0.1459  0.1338
11947PP      PP22051  15.028   9.999   1.087 -0.2050 -0.1332 -0.1497
11948PP      PP22052   5.472   8.277   5.084  0.1490 -0.2356  0.0428
11949PP      PP22053  10.451  12.961  13.153  0.2466  0.0761  0.3310
11950PP      PP22054   2.336   6.489   3.880 -0.3366 -0.1850 -0.0192
11951PP      PP22055   8.391   0.531  10.489 -0.1599  0.0282 -0.2835
11952PP      PP22056   5.156   9.000   5.243  0.2118 -0.0726 -0.0020
11953PP      PP22057  12.516  11.208  12.495  0.0435 -0.1189 -0.1570
11954PP      PP22058   0.119   3.613   1.274  0.1323  0.0195 -0.3246
11955PP      PP22059   2.902  12.254   1.545 -0.1597 -0.4154  0.0604
11956PP      PP22060   7.614   0.797   0.322 -0.0260  0.1554  0.0293
11957PP      PP22061  10.196   2.111   4.395 -0.0943  0.0099 -0.2706
11958PP      PP22062   3.187  11.631   2.959 -0.1519  0.4780  0.0992
11959PP      PP22063  14.982   0.454  11.529  0.0024  0.2722 -0.2034
11960PP      PP22064   1.536  12.994   0.392  0.2312 -0.0382 -0.2119
11961PP      PP22065  11.771   4.314  10.891 -0.1435 -0.0247 -0.0587
11962PP      PP22066   4.280  12.304   3.477  0.1317  0.0716  0.1539
11963PP      PP22067   5.941  15.451   4.031 -0.0270 -0.1111  0.2111
11964PP      PP22068   3.790  13.237   2.652 -0.0962 -0.1642  0.0716
11965PP      PP22069  13.776   8.020  11.250  0.1779 -0.0484  0.2474
11966PP      PP22070  14.334  10.035   9.700 -0.1720 -0.1539 -0.1256
11967PP      PP22071  14.630   8.886   0.792 -0.2068  0.1910  0.0876
11968PP      PP22072   1.474  15.195   2.075 -0.0209 -0.0816 -0.1118
11969PP      PP22073   9.558   2.119   9.058  0.0497  0.1325 -0.0713
11970PP      PP22074   6.085   7.003  10.039  0.0252 -0.1345 -0.0130
11971PP      PP22075   5.721   1.384  13.365 -0.0988  0.0740 -0.0814
11972PP      PP22076  13.803   1.014  12.613  0.0176  0.2620 -0.1978
11973PP      PP22077  10.087   9.038   0.710  0.0672  0.0352  0.1322
11974PP      PP22078   7.372   8.229   4.201  0.2425 -0.2118 -0.2373
11975PP      PP22079   8.637  10.606   8.596  0.0109 -0.0252 -0.5035
11976PP      PP22080   5.750  10.836   4.154  0.0076 -0.1071 -0.1293
11977PP      PP22081   8.935   9.524  10.845  0.3875 -0.0468 -0.1823
11978PP      PP22082  13.581   0.917  10.783  0.3337 -0.2800  0.0048
11979PP      PP22083  12.299   3.143   1.719  0.0549  0.0183  0.0472
11980PP      PP22084   8.996   5.230   3.543 -0.1322 -0.0748  0.4351
11981PP      PP22085   5.904  10.450  11.855  0.2169  0.0395 -0.3641
11982PP      PP22086  14.426   8.591   2.505  0.3345  0.3149 -0.2917
11983PP      PP22087  13.959  12.921   3.010 -0.2806 -0.0459 -0.0244
11984PP      PP22088  10.010   2.415   3.951 -0.0565  0.2033  0.0317
11985PP      PP22089  15.660  11.586  11.467  0.5554 -0.0102 -0.0535
11986PP      PP22090   1.255   0.875  13.407 -0.1382 -0.1045  0.0485
11987PP      PP22091   7.319   3.802   1.069  0.0749 -0.0635 -0.0342
11988PP      PP22092   6.993  13.299   3.810  0.0169 -0.3496 -0.2762
11989PP      PP22093  14.777   1.156  13.287 -0.2852  0.0334  0.1460
11990PP      PP22094   2.669   3.724   4.682  0.0202 -0.1058  0.0125
11991PP      PP22095   7.069  11.051  12.378  0.0634 -0.1909 -0.0086
11992PP      PP22096   1.346   9.880   3.994 -0.0897 -0.0830  0.3329
11993PP      PP22097   1.571   4.746   4.314 -0.2636 -0.1741 -0.2209
11994PP      PP22098   0.979   0.339   1.388  0.1904  0.1688 -0.4180
11995PP      PP22099  13.426  11.263   0.543  0.0849  0.0513  0.1410
11996PP      PP22100  10.996   0.286   9.177  0.0251 -0.0604  0.0046
11997PP      PP22101   3.167  10.307  12.361  0.0671 -0.0823 -0.0430
11998PP      PP22102   5.603   6.833   1.184  0.2818 -0.2080 -0.0069
11999PP      PP22103  15.833   5.990   1.368 -0.1087  0.3110  0.0782
12000PP      PP22104  11.841   2.214   2.790  0.3294  0.1481  0.1516
12001PP      PP22105  10.832   9.417  10.783  0.0791 -0.0105 -0.1161
12002PP      PP22106   9.058   1.446   0.093 -0.2386  0.1738 -0.2771
12003PP      PP22107   5.248   0.834   4.365 -0.1235 -0.0156 -0.2207
12004PP      PP22108   1.911   1.467   0.422 -0.2075 -0.0607  0.1338
12005PP      PP22109  13.804   5.085   9.587  0.1406  0.0706 -0.2233
12006PP      PP22110   3.806   4.610   2.000  0.0181  0.0987  0.0206
12007PP      PP22111   8.502   8.051   0.825 -0.1880 -0.0405  0.1905
12008PP      PP22112   5.166   6.174   4.104  0.1805  0.2027  0.2643
12009PP      PP22113  12.375   1.888   2.639 -0.1505 -0.1209 -0.2345
12010PP      PP22114   7.775   3.320  10.497 -0.2268 -0.0950 -0.2057
12011PP      PP22115  13.173   9.066  10.708  0.2926  0.1211  0.2140
12012PP      PP22116   9.731   7.164   4.328  0.1538  0.0322 -0.1305
12013PP      PP22117   0.487   7.527   1.773  0.0964 -0.0520  0.0754
12014PP      PP22118   4.980  11.286   3.946 -0.3130  0.0073 -0.0635
12015PP      PP22119   3.399  12.464  13.333 -0.1706  0.0660 -0.0753
12016PP      PP22120  12.102  12.303   3.327  0.1291  0.0090  0.0696
12017PP      PP22121   2.809   8.894  12.543 -0.2992 -0.3350 -0.0616
12018PP      PP22122  14.893  11.760   1.032 -0.1534 -0.0901  0.0865
12019PP      PP22123  13.391   9.054   9.826  0.0172  0.1799  0.0028
12020PP      PP22124   6.822  10.604   0.722 -0.0470  0.1909 -0.4212
12021PP      PP22125   2.491  11.651  11.062  0.0623  0.2706 -0.1300
12022PP      PP22126  15.109   4.948  12.018  0.1442 -0.0008 -0.1160
12023PP      PP22127  13.968  14.634  11.245 -0.2328  0.1243 -0.2813
12024PP      PP22128   8.725   3.791   1.044  0.2392 -0.2525  0.1295
12025PP      PP22129  15.721   8.433   1.142 -0.0940 -0.2136  0.2107
12026PP      PP22130   1.148   9.858  10.120 -0.2618  0.0685 -0.2105
12027PP      PP22131   6.328  11.979  12.465 -0.0822 -0.0240 -0.0994
12028PP      PP22132   0.814   0.083  12.361 -0.0317 -0.2405  0.0467
12029PP      PP22133  11.652  15.172  12.884 -0.0202 -0.2768 -0.0268
12030PP      PP22134   9.096  10.441   0.008 -0.2250  0.1390  0.1975
12031PP      PP22135   3.382  12.500  10.705  0.3390  0.0955 -0.0573
12032PP      PP22136   3.150   5.553  10.086  0.3004  0.1851 -0.0307
12033PP      PP22137  15.773  15.560   4.237  0.3713  0.0407  0.2685
12034PP      PP22138   0.881  14.282   0.786 -0.0424 -0.0392 -0.0886
12035PP      PP22139   5.201   1.682   8.716  0.1226  0.4072  0.1004
12036PP      PP22140   8.778   8.991  10.837  0.0869 -0.0400  0.2788
12037PP      PP22141   8.883   7.704   0.838  0.0338  0.1390 -0.0852
12038PP      PP22142   8.164  11.043   5.241 -0.3825  0.1797  0.2301
12039PP      PP22143   2.442  13.109  11.237 -0.3223 -0.4567  0.1462
12040PP      PP22144   7.274   8.091  12.712 -0.0194 -0.0192  0.0661
12041PP      PP22145   5.232  11.227   0.615 -0.3352 -0.4171 -0.4059
12042PP      PP22146  13.575   0.613   2.792  0.3246  0.1259  0.1852
12043PP      PP22147   4.718   8.656  11.574  0.1166 -0.1593  0.2947
12044PP      PP22148  15.347   4.139  10.385 -0.0899  0.4532 -0.0144
12045PP      PP22149   4.210   3.189  10.662  0.1790 -0.0646  0.0395
12046PP      PP22150   2.148   3.376   2.960 -0.1930 -0.1390 -0.2117
12047PP      PP22151   1.666   6.150   2.916  0.0793 -0.1185  0.1534
12048PP      PP22152  15.705  15.398   3.275  0.0810  0.1298 -0.1444
12049PP      PP22153   0.338   2.080   3.106  0.2388 -0.2878  0.0170
12050PP      PP22154   9.439   3.593  10.077 -0.0885  0.1707  0.1783
12051PP      PP22155  11.607  12.149   1.832 -0.4297 -0.1465  0.0824
12052PP      PP22156   7.691   8.181  11.084 -0.0032  0.1685 -0.1342
12053PP      PP22157  12.155   3.198  12.664 -0.1060 -0.1448 -0.1121
12054PP      PP22158   0.881  14.683   1.572 -0.2299 -0.0739  0.0666
12055PP      PP22159  10.247  10.688   1.115  0.1462 -0.0848 -0.3132
12056PP      PP22160  15.059  11.507   2.419 -0.4032 -0.0549 -0.1388
12057PP      PP22161   4.273   8.799   3.460 -0.1795 -0.1372 -0.4441
12058PP      PP22162   6.626  12.449   2.877 -0.3160 -0.0317 -0.0925
12059PP      PP22163   6.107  15.561   8.676 -0.0653  0.2393  0.0256
12060PP      PP22164  12.327   7.354   2.829  0.0712  0.0304  0.2942
12061PP      PP22165   5.433   5.720  10.529  0.1646  0.1135 -0.1998
12062PP      PP22166   1.143   6.441   9.746  0.1263 -0.0602 -0.1637
12063PP      PP22167   7.905  14.054  12.086 -0.4817  0.1895 -0.1307
12064PP      PP22168   6.757   8.638   2.982  0.2277 -0.2933 -0.0466
12065PP      PP22169  14.727  10.364   4.270  0.0270  0.4252  0.1620
12066PP      PP22170   6.747   6.430   5.023  0.0995  0.1356 -0.0606
12067PP      PP22171  14.941   3.519  10.937 -0.2957  0.1060  0.0177
12068PP      PP22172  10.502   7.881   0.420  0.1195  0.1828 -0.2575
12069PP      PP22173   3.273   1.573  12.799  0.0223  0.0229 -0.2570
12070PP      PP22174  14.910   3.964   0.902 -0.0102  0.0152 -0.2636
12071PP      PP22175   2.652   2.528  11.091 -0.0061 -0.2859 -0.1324
12072PP      PP22176   0.591  12.323   1.749  0.4119  0.1492  0.0247
12073PP      PP22177   5.518  13.532   4.821 -0.0925  0.0521  0.1802
12074PP      PP22178  14.872  14.964   4.836 -0.4046  0.1482  0.0748
12075PP      PP22179   8.335  12.476   5.034  0.1709  0.2022  0.0291
12076PP      PP22180  13.156   2.961  10.993 -0.1070  0.0178 -0.0157
12077PP      PP22181   9.663   9.011  11.985  0.3142 -0.2290  0.1230
12078PP      PP22182  12.711   8.867   9.152 -0.1154 -0.3293  0.0930
12079PP      PP22183   2.362   8.858   2.026  0.1468  0.0616 -0.2807
12080PP      PP22184  10.002   3.839   1.324 -0.0242 -0.0922 -0.1151
12081PP      PP22185   0.246   4.004   4.671 -0.0827 -0.1415 -0.1886
12082PP      PP22186  11.199   3.223   0.915  0.2683  0.2244  0.0159
12083PP      PP22187  10.462  15.359   8.921 -0.1205 -0.1567 -0.1612
12084PP      PP22188  11.248   5.948  10.357  0.0064  0.1324 -0.0653
12085PP      PP22189   4.096   0.953  10.345 -0.1785  0.2622  0.1284
12086PP      PP22190  10.152  11.045  11.916 -0.1392  0.3016  0.1443
12087PP      PP22191   8.006   0.613   1.691 -0.1557 -0.1631  0.0138
12088PP      PP22192   1.843   8.944  12.960 -0.1300  0.1671 -0.3963
12089PP      PP22193  10.656   2.728   4.595 -0.1086  0.4567 -0.1512
12090PP      PP22194   6.420   5.553   4.430  0.3300  0.0785 -0.0499
12091PP      PP22195   2.575  12.819  10.280  0.0799  0.0071  0.0378
12092PP      PP22196  13.855   5.467  10.903  0.0324  0.1368 -0.3372
12093PP      PP22197   3.625   1.172  12.616 -0.1491  0.0680  0.2208
12094PP      PP22198   6.746  12.949  10.743  0.2186 -0.1041  0.1203
12095PP      PP22199   6.224   3.617   4.578 -0.0628 -0.1596  0.2035
12096PP      PP22200   7.398  15.049  11.203  0.1198  0.1069  0.3497
12097PP      PP22201  10.227   7.643  11.728 -0.0842  0.0918  0.0763
12098PP      PP22202   0.316  14.319  12.815 -0.0260 -0.0350 -0.1817
12099PP      PP22203  15.069  14.343   0.672 -0.0396 -0.1670  0.0410
12100PP      PP22204  10.848  11.162   0.822 -0.2323  0.1011  0.5921
12101PP      PP22205  10.856  10.144   3.334 -0.2521  0.2118  0.2295
12102PP      PP22206   2.934   3.783   2.367  0.3444  0.0271  0.4683
12103PP      PP22207   5.522   3.005   3.423  0.0981  0.1707 -0.2203
12104PP      PP22208   5.718  10.569   2.178 -0.0604 -0.0800  0.1326
12105PP      PP22209  12.771   4.185   1.150  0.2396  0.2143  0.1217
12106PP      PP22210  13.153   1.632   2.088 -0.1343  0.2141 -0.0557
12107PP      PP22211   2.318   1.867  10.658  0.2391  0.3439  0.0903
12108PP      PP22212   3.216  13.691  10.149  0.0992  0.3648  0.0490
12109PP      PP22213   8.147  10.602   3.628  0.0243 -0.0338 -0.1234
12110PP      PP22214  11.326  12.108   8.722 -0.1335  0.0897  0.1652
12111PP      PP22215   5.909   8.837  12.699 -0.0392  0.1820 -0.1385
12112PP      PP22216   3.106  15.754   4.161  0.0864  0.0716  0.3484
12113PP      PP22217   6.978   1.837   0.223 -0.0872  0.1166  0.4176
12114PP      PP22218   2.909  11.949   2.679  0.0421 -0.1920  0.1631
12115PP      PP22219  11.747  15.214   2.900  0.1441 -0.0144  0.0593
12116PP      PP22220   2.837   1.948  12.073  0.2201 -0.0979 -0.2802
12117PP      PP22221   2.635  13.489   8.985  0.2530 -0.2203  0.2418
12118PP      PP22222   6.052  14.795  11.890  0.1665  0.1104 -0.1861
12119PP      PP22223   7.596  11.779  11.589  0.0099  0.0107  0.0461
12120PP      PP22224  12.415   6.994  12.591 -0.0940 -0.0923  0.1599
12121PP      PP22225  14.100   0.173   1.640  0.0945  0.0417  0.1836
12122PP      PP22226   5.768  15.770   2.207 -0.3172  0.1270  0.0887
12123PP      PP22227   0.498  13.829   7.727  0.1514  0.0184  0.1088
12124PP      PP22228   4.456  15.416  12.954 -0.1805 -0.2747  0.1634
12125PP      PP22229   1.700   4.841  13.438  0.2151 -0.0976 -0.1082
12126PP      PP22230   3.305   3.883   1.649  0.0126  0.1434 -0.0371
12127PP      PP22231   1.537  15.491  13.411  0.0804  0.2891  0.3554
12128PP      PP22232  14.337  13.168  10.990  0.0731 -0.0336  0.0288
12129PP      PP22233  13.430   5.641   9.327 -0.1032  0.0862 -0.1019
12130PP      PP22234   7.474  14.019   9.629  0.0448  0.2556 -0.0149
12131PP      PP22235   1.124   1.253   0.650 -0.2318  0.1393 -0.0012
12132PP      PP22236   9.257   4.995  11.536  0.0295  0.1493  0.0847
12133PP      PP22237  10.876   0.646   0.460 -0.3490 -0.1618  0.1447
12134PP      PP22238  15.326   5.479  10.962 -0.0115  0.0743 -0.0981
12135PP      PP22239   5.865   1.389  11.140 -0.1279  0.0275 -0.0179
12136PP      PP22240  14.317   1.234   0.985 -0.0680 -0.1030 -0.3874
12137PP      PP22241   3.993   0.407  11.981  0.1558  0.0420 -0.2622
12138PP      PP22242   0.864  13.093  12.280 -0.1868 -0.0199  0.0088
12139PP      PP22243   3.764  10.722  11.990  0.1736  0.0458 -0.5597
12140PP      PP22244  13.515   7.792   9.165  0.2291  0.0197  0.2018
12141PP      PP22245   7.643   3.911   1.425 -0.2096 -0.4018 -0.1338
12142PP      PP22246   3.041   1.047   3.523 -0.1648 -0.1500  0.1322
12143PP      PP22247  12.303   1.862  12.374  0.2219 -0.0521  0.1556
12144PP      PP22248   2.495  15.060  10.564  0.3290  0.3679  0.0142
12145PP      PP22249   4.622  15.305  10.119 -0.0208  0.1397 -0.0236
12146PP      PP22250  12.986   3.295  10.611 -0.0315  0.1799 -0.1111
12147PP      PP22251   7.733   0.057  11.040  0.1468  0.1465 -0.0157
12148PP      PP22252  12.466   6.886   1.045  0.1473 -0.2146  0.0481
12149PP      PP22253   1.593  13.362  11.817  0.2281 -0.1993 -0.0194
12150PP      PP22254   8.615   2.735   0.902 -0.0145  0.0054 -0.0835
12151PP      PP22255  10.851   8.015   8.871 -0.3408  0.0569  0.0860
12152PP      PP22256   8.037   8.213   2.085  0.2504  0.2424 -0.1321
12153PP      PP22257   7.473  12.727  13.424 -0.3240 -0.0793 -0.1946
12154PP      PP22258  12.259  12.048   8.661 -0.1149 -0.0092  0.2129
12155PP      PP22259  10.901   0.365   2.845  0.1721 -0.0094  0.1829
12156PP      PP22260  11.192   8.593  11.517  0.0780  0.0741  0.2481
12157PP      PP22261  13.243  14.751   9.284  0.2152  0.0263 -0.0786
12158PP      PP22262  13.420   0.219   3.813 -0.1160  0.1967 -0.1031
12159PP      PP22263  11.540   1.231   4.111 -0.1520 -0.4427 -0.2157
12160PP      PP22264  13.163   3.163   0.240  0.3196 -0.0245 -0.1903
12161PP      PP22265   0.546  15.731  11.965 -0.1142 -0.2425  0.1043
12162PP      PP22266   3.525   0.033   3.877  0.2073  0.1514  0.0775
12163PP      PP22267   9.260   7.918   2.359  0.1043  0.0717  0.1444
12164PP      PP22268   0.391   9.472   1.742  0.0401  0.1760  0.1236
12165PP      PP22269   0.365  10.431   3.884 -0.0326  0.0097  0.0472
12166PP      PP22270   1.585  14.613   9.638 -0.2002 -0.3391 -0.0883
12167PP      PP22271  15.367   8.649  12.068 -0.2218 -0.1705 -0.0509
12168PP      PP22272  13.807   8.413  10.956  0.3137  0.2501  0.0548
12169PP      PP22273   9.241   0.331  13.280 -0.1351 -0.0836  0.2066
12170PP      PP22274   7.688   0.374   3.101 -0.2003 -0.2198  0.1522
12171PP      PP22275   3.784  13.579   9.478 -0.0235 -0.2605 -0.0706
12172PP      PP22276   6.062   6.620   1.202 -0.3134  0.2490  0.0242
12173PP      PP22277   0.689  15.884   2.269 -0.0156 -0.1223 -0.0675
12174PP      PP22278  14.081  14.315  12.155 -0.1205  0.0343  0.3082
12175PP      PP22279  13.787   6.860  10.372  0.0344  0.2262 -0.3267
12176PP      PP22280   7.264   7.035   3.944 -0.1747  0.4877 -0.0830
12177PP      PP22281   5.984  10.840  10.093 -0.0586  0.1667  0.1358
12178PP      PP22282   6.390   3.996  13.124 -0.1866  0.1627  0.0792
12179PP      PP22283   5.033   8.608   4.953  0.2904 -0.2251  0.0262
12180PP      PP22284   9.523   2.759  11.016 -0.2856 -0.3391 -0.1901
12181PP      PP22285   3.971  10.386   5.315  0.0062  0.2619  0.0660
12182PP      PP22286  12.937   0.247  10.552 -0.0537  0.3109 -0.1389
12183PP      PP22287   3.565  13.250   4.513 -0.0419  0.0473  0.0246
12184PP      PP22288   7.084   3.723   1.457 -0.0265  0.1376  0.3135
12185PP      PP22289   7.313   8.124   0.370 -0.0089  0.0124  0.1468
12186PP      PP22290  11.786   8.634   0.472  0.0369  0.3640 -0.1822
12187PP      PP22291   9.674   8.658  10.901 -0.1789  0.0981  0.1348
12188PP      PP22292   6.521   5.492   4.908  0.0514  0.1593 -0.1473
12189PP      PP22293  13.265  10.127   2.180  0.3331 -0.1057  0.0391
12190PP      PP22294  15.733  15.415   1.943  0.3022  0.0842 -0.1949
12191PP      PP22295   3.266   2.042  10.377  0.1281 -0.1391  0.3424
12192PP      PP22296  12.312  15.505   4.302  0.0139  0.3461  0.0010
12193PP      PP22297  15.379   4.661   2.797 -0.1842  0.1083  0.1936
12194PP      PP22298   7.106   1.022   2.508 -0.1933  0.2457  0.0117
12195PP      PP22299   3.499   8.515   4.324  0.1792  0.0693 -0.4006
12196PP      PP22300   7.034  14.561   2.518  0.0185 -0.3270 -0.0525
12197PP      PP22301   3.991  13.949  11.969  0.1902 -0.1087 -0.1048
12198PP      PP22302   2.487   9.161   1.532 -0.2048 -0.3416  0.0413
12199PP      PP22303  13.353  11.937   8.921 -0.3400  0.1605 -0.4269
12200PP      PP22304   7.488   7.985  10.088 -0.2147  0.0722 -0.0513
12201PP      PP22305  12.077   1.745   5.007  0.0779  0.1619  0.2234
12202PP      PP22306  10.402   7.756   1.552  0.2828 -0.0402  0.0711
12203PP      PP22307  13.846   9.731  12.698 -0.0219  0.0174  0.0569
12204PP      PP22308   6.719   2.456   0.663 -0.1186  0.0628  0.0273
12205PP      PP22309   4.886  10.342   0.378 -0.1244 -0.0368  0.2163
12206PP      PP22310   1.370  14.623  11.226 -0.1654 -0.2092 -0.0802
12207PP      PP22311   0.543   1.385   9.947  0.3419 -0.3433  0.0086
12208PP      PP22312   9.673   9.179   2.164 -0.1629  0.1822 -0.1737
12209PP      PP22313   2.655  13.454  10.894  0.3215  0.0756  0.0711
12210PP      PP22314   0.278   5.984  13.158 -0.1044 -0.0367 -0.1196
12211PP      PP22315   2.310   4.626  10.797 -0.2797  0.2222 -0.0271
12212PP      PP22316   2.673   3.373   9.787 -0.1406  0.2806  0.1270
12213PP      PP22317   5.159   8.323   3.491  0.0057 -0.1102 -0.1483
12214PP      PP22318  14.183   1.222  12.099 -0.2175 -0.1072 -0.1179
12215PP      PP22319   2.545   0.443  11.147  0.0734  0.1039  0.4118
12216PP      PP22320   2.184  13.570   1.192 -0.0590  0.0028 -0.1048
12217PP      PP22321   3.359   6.338   1.799  0.0711 -0.0101  0.0202
12218PP      PP22322   1.642   1.700   9.330 -0.0557  0.3871  0.3044
12219PP      PP22323  14.283   6.389  12.713  0.0508  0.0917  0.0958
12220PP      PP22324   0.596   9.730   9.553 -0.2756  0.2161 -0.1439
12221PP      PP22325   5.381   8.451  11.083 -0.1715 -0.0652 -0.5903
12222PP      PP22326   6.710  15.801   3.395  0.1393 -0.1626  0.1635
12223PP      PP22327  12.647  15.373  10.029 -0.5087 -0.0859  0.0185
12224PP      PP22328   0.286  11.810   1.188 -0.2309 -0.0540 -0.1048
12225PP      PP22329   5.002   7.124   9.715  0.1159  0.0111  0.0505
12226PP      PP22330  15.846   5.578   1.656  0.0148 -0.1612  0.1131
12227PP      PP22331  11.494  11.716  10.051  0.0288 -0.2411  0.2396
12228PP      PP22332   6.593  10.736  11.320 -0.0892  0.1351 -0.2239
12229PP      PP22333   9.061   3.841  10.748  0.0505 -0.0220 -0.4054
12230PP      PP22334   0.078   9.856  12.077 -0.0663  0.0940  0.3590
12231PP      PP22335  15.028  11.987  11.374  0.0152  0.0971  0.2166
12232PP      PP22336   5.336  14.444   0.459  0.1579  0.1094 -0.0395
12233PP      PP22337   5.822   7.460  10.140  0.0087 -0.0122  0.1432
12234PP      PP22338  11.350  12.056  11.894 -0.1855  0.1299  0.1540
12235PP      PP22339   3.106   4.381  11.400  0.0479 -0.0600  0.0160
12236PP      PP22340  13.329   1.107  10.211 -0.5304  0.1099 -0.1760
12237PP      PP22341   6.081  10.405  12.335 -0.1966 -0.1195 -0.0056
12238PP      PP22342   0.193   0.971  10.889 -0.0878  0.1614  0.0678
12239PP      PP22343   2.229   2.180  12.967  0.2241 -0.0275 -0.2029
12240PP      PP22344   0.266   9.955   9.216 -0.2147 -0.1979 -0.1535
12241PP      PP22345  10.948   7.631   1.337  0.2406 -0.1571  0.1259
12242PP      PP22346  12.618  10.535  12.070  0.0774  0.0695 -0.0253
12243PP      PP22347   1.884  14.654  11.869 -0.0552 -0.0996  0.5041
12244PP      PP22348   0.988   5.599   0.084 -0.0612 -0.1105 -0.3347
12245PP      PP22349   3.064  10.503   1.218  0.0141 -0.1188 -0.3619
12246PP      PP22350  14.040   2.239   1.822 -0.3103  0.4272  0.0745
12247PP      PP22351   9.811  14.481   3.811  0.2929  0.2943 -0.1831
12248PP      PP22352   2.748   4.621  11.021  0.2009  0.0176  0.2268
12249PP      PP22353   0.019  15.090  10.601  0.1872  0.0845  0.2817
12250PP      PP22354   4.638  10.029   2.964  0.0294 -0.1298 -0.0164
12251PP      PP22355   0.958   0.424   0.844 -0.4469 -0.2672 -0.0720
12252PP      PP22356   1.516   9.105   1.659 -0.1770 -0.0459  0.0828
12253PP      PP22357  10.837  11.593   2.134  0.0292 -0.1063 -0.1415
12254PP      PP22358  15.778  14.363  10.729  0.1150  0.1419  0.0246
12255PP      PP22359   5.171   1.933   2.405  0.3246 -0.0298 -0.3868
12256PP      PP22360   2.993   5.997  10.747 -0.1874 -0.3117  0.3872
12257PP      PP22361  11.225  13.068   1.638  0.2453  0.4249  0.2231
12258PP      PP22362   9.337   9.309   9.438  0.1413  0.0613  0.0781
12259PP      PP22363   6.184   7.322   1.985 -0.1502 -0.0642 -0.1612
12260PP      PP22364   3.922   2.461   3.923  0.2061  0.1401  0.1906
12261PP      PP22365  15.142   7.632   0.176 -0.2216 -0.1574 -0.2085
12262PP      PP22366   7.615  15.735   2.373 -0.0645  0.1575 -0.1252
12263PP      PP22367  10.627   1.059   1.474 -0.1204 -0.0699 -0.1440
12264PP      PP22368  10.645  11.618  13.392 -0.1123  0.1163  0.0355
12265PP      PP22369  10.815   1.145  12.630  0.0249  0.1397 -0.0410
12266PP      PP22370   0.396   4.753   2.798  0.4050  0.0026  0.0681
12267PP      PP22371   8.142  10.327  11.935  0.1903  0.2592 -0.2601
12268PP      PP22372  14.599   2.010   0.574  0.1474 -0.0758  0.2996
12269PP      PP22373   9.300   5.129   8.944  0.0486 -0.0768  0.1929
12270PP      PP22374  14.189   8.932   1.899  0.0020 -0.0284  0.0027
12271PP      PP22375   1.628  13.316   9.725 -0.0849  0.3124  0.1061
12272PP      PP22376  10.932  12.137   2.473 -0.1143 -0.0768  0.1300
12273PP      PP22377  10.271   4.902   1.711  0.3323  0.0066  0.3168
12274PP      PP22378   3.836  15.076   9.452  0.0439  0.1562  0.3555
12275PP      PP22379   6.604  13.169   4.151 -0.4685 -0.0265 -0.0693
12276PP      PP22380  15.200   1.392   2.448  0.0507  0.0699 -0.1039
12277PP      PP22381  10.309   9.761  12.418  0.1486 -0.1393  0.0331
12278PP      PP22382   1.447  13.838   1.270  0.0041 -0.0474 -0.1402
12279PP      PP22383   8.051  14.391   1.439  0.1801 -0.1835 -0.2532
12280PP      PP22384   4.536  11.201  12.083 -0.1772 -0.4377 -0.1794
12281PP      PP22385  10.705   8.742   1.245  0.0410  0.0038  0.2594
12282PP      PP22386   1.757  11.025   0.851 -0.3061  0.1619 -0.0752
12283PP      PP22387  12.305   4.375   1.163 -0.4276 -0.0235  0.1653
12284PP      PP22388  11.632  12.269  12.491  0.0656 -0.1416  0.0315
12285PP      PP22389   9.529   8.930   9.742  0.1729 -0.0306 -0.0917
12286PP      PP22390   6.892  15.675   0.038  0.1355 -0.1687 -0.0613
12287PP      PP22391   7.951  10.972   9.321 -0.1241 -0.0228  0.1360
12288PP      PP22392   9.329   0.957  10.781  0.0613  0.1298  0.0439
12289PP      PP22393   1.473   6.595  12.412  0.0458  0.1260  0.0597
12290PP      PP22394   4.557   1.014   2.848 -0.3460  0.0353  0.0806
12291PP      PP22395   9.805  15.415  12.766 -0.1161  0.0992 -0.0052
12292PP      PP22396   7.595   5.265   3.656  0.0411 -0.1045 -0.0985
12293PP      PP22397  10.895   6.808   2.168 -0.0893  0.2966 -0.0911
12294PP      PP22398   5.186  11.483  10.124 -0.0013  0.2657 -0.4412
12295PP      PP22399   6.145   8.042  12.091 -0.0472  0.2330 -0.1551
12296PP      PP22400   2.800  12.999   0.286  0.2715  0.0505  0.1962
12297PP      PP22401  15.326   8.125   0.936 -0.1484  0.1890  0.3034
12298PP      PP22402  14.023   5.061   4.623  0.4182  0.0166  0.0879
12299PP      PP22403  10.146   8.301   1.239 -0.0263 -0.2583 -0.2837
12300PP      PP22404   0.792   2.963   2.642  0.2710 -0.1222  0.6577
12301PP      PP22405   0.123   6.278   0.984  0.1486 -0.1619  0.1879
12302PP      PP22406   6.544  15.285   2.244 -0.0131  0.0648 -0.0099
12303PP      PP22407   5.727   2.164   9.661 -0.3518  0.3199  0.0411
12304PP      PP22408   8.848   7.527   2.130  0.0681 -0.2690  0.0635
12305PP      PP22409   7.392   6.108  12.745  0.0438 -0.0244  0.2439
12306PP      PP22410   2.380   9.711   3.706 -0.0269 -0.1789  0.0451
12307PP      PP22411   7.924   9.623  11.989 -0.0052 -0.2640  0.1680
12308PP      PP22412   9.288  13.327  12.590  0.0199  0.2007 -0.0820
12309PP      PP22413   0.371   7.369   4.550  0.3263  0.0644 -0.1888
12310PP      PP22414   2.245  14.267   1.606  0.3065 -0.0914  0.1302
12311PP      PP22415   1.895   6.179   1.711 -0.0063 -0.1635  0.2342
12312PP      PP22416  15.855   4.270   3.380  0.0485 -0.1764  0.1059
12313PP      PP22417  12.465   9.315   4.117  0.2498  0.1151  0.0461
12314PP      PP22418  11.111   7.718   2.176 -0.1969  0.0470  0.0051
12315PP      PP22419   8.764   1.061  12.507 -0.2010  0.1243 -0.0007
12316PP      PP22420  10.068   3.764   9.581 -0.2135 -0.1209 -0.0884
12317PP      PP22421  13.658   3.249   8.623 -0.3960  0.1574  0.1909
12318PP      PP22422   3.622   5.193   9.871 -0.3244 -0.0725 -0.0993
12319PP      PP22423  10.449  10.303  13.289 -0.4625  0.1307  0.0769
12320PP      PP22424   5.394   3.885  10.479  0.1279 -0.1757  0.0327
12321PP      PP22425   7.737   7.242   3.920  0.0158 -0.1041  0.0870
12322PP      PP22426  12.429   3.001   0.458  0.0890  0.0403  0.0812
12323PP      PP22427   9.952  11.775   8.393 -0.0475  0.2690  0.1335
12324PP      PP22428  13.098   3.306   9.196 -0.1422 -0.2164 -0.0004
12325PP      PP22429  13.280  15.460   2.215  0.0512  0.2290  0.1933
12326PP      PP22430   0.134   5.304   0.646  0.1124  0.0438 -0.0735
12327PP      PP22431   9.507   1.659  13.426  0.0029 -0.0593  0.1860
12328PP      PP22432  11.809   1.394   9.190 -0.0039  0.3144  0.1254
12329PP      PP22433  10.439  13.419   3.092  0.1577  0.3613  0.1760
12330PP      PP22434   0.820   5.858   1.365  0.4321  0.0379 -0.1952
12331PP      PP22435   1.162  10.678   1.617  0.0521  0.2457  0.3702
12332PP      PP22436  10.895   9.638   2.434 -0.1530 -0.2828 -0.2230
12333PP      PP22437   7.442  12.556   9.543  0.3282  0.0945  0.7735
12334PP      PP22438   5.051  14.000  12.293  0.0544 -0.2116  0.0923
12335PP      PP22439  10.478   6.535   3.077  0.2380 -0.0816  0.1371
12336PP      PP22440   0.244   9.916  13.003 -0.0529 -0.2327 -0.1091
12337PP      PP22441   8.279   0.385   8.850  0.0087 -0.1027  0.0429
12338PP      PP22442   6.380   7.935  11.440 -0.1428  0.1174 -0.0483
12339PP      PP22443   2.405  15.039   9.469 -0.0597 -0.0700 -0.2659
12340PP      PP22444   4.232  11.261   1.948 -0.1973 -0.0537  0.0383
12341PP      PP22445   9.568   3.477   3.479  0.0165 -0.0249 -0.1018
12342PP      PP22446  10.938  12.444  10.957  0.0527  0.2620 -0.1087
12343PP      PP22447  10.977   7.204   3.872 -0.2148  0.0723  0.0197
12344PP      PP22448   2.906   9.917   2.544 -0.1070  0.3354 -0.3184
12345PP      PP22449  13.681   5.232   9.042  0.1294 -0.0476 -0.2210
12346PP      PP22450   3.300  15.696  11.217  0.1039 -0.0457 -0.0160
12347PP      PP22451   5.654   4.189  11.166 -0.1175 -0.0067  0.1701
12348PP      PP22452   1.797   8.831   4.603  0.1386  0.2203  0.0984
12349PP      PP22453  15.361  11.174   0.217 -0.1750  0.0511 -0.0258
12350PP      PP22454   7.613   0.845   3.777  0.2179 -0.1332 -0.1471
12351PP      PP22455  12.960   2.070   1.880 -0.0571 -0.2432  0.1391
12352PP      PP22456   6.920   2.960   1.609 -0.1431 -0.1755 -0.1095
12353PP      PP22457   7.440   9.152   0.165 -0.0469  0.0019  0.1539
12354PP      PP22458   0.057  13.771   2.749 -0.0599 -0.0967 -0.1476
12355PP      PP22459  13.871   6.694  12.331  0.2674 -0.1561 -0.0584
12356PP      PP22460   2.440  11.050   2.331  0.0215 -0.2320  0.1627
12357PP      PP22461   0.025   0.141   0.292  0.0959  0.2324  0.1480
12358PP      PP22462  11.371  11.103   3.363  0.2868 -0.1069 -0.1406
12359PP      PP22463   7.376  11.873  12.071 -0.3095  0.0587  0.0716
12360PP      PP22464   6.169   8.344   3.773  0.0161 -0.0240 -0.2105
12361PP      PP22465   0.331   3.995  10.532 -0.0936 -0.1947  0.0029
12362PP      PP22466   9.059   7.263  11.844  0.0899 -0.2067  0.2880
12363PP      PP22467   9.720   1.908  11.572 -0.0779 -0.1357 -0.1491
12364PP      PP22468   7.819  15.538   9.035  0.2688 -0.3059 -0.2564
12365PP      PP22469  12.239  15.233   2.141 -0.0125 -0.1209  0.0485
12366PP      PP22470   1.330   0.127   9.090 -0.1166 -0.3783  0.0283
12367PP      PP22471  15.869   6.379  12.597  0.1614  0.3059 -0.1150
12368PP      PP22472  14.651   9.227  11.231  0.1535 -0.1276  0.1827
12369PP      PP22473   8.630  11.117  11.828 -0.1984 -0.1117 -0.3800
12370PP      PP22474   0.030  14.604   3.537  0.2910 -0.1685 -0.2572
12371PP      PP22475   2.357   1.334   0.692 -0.1811 -0.2027  0.0957
12372PP      PP22476  14.084   0.093  11.275 -0.0695  0.1539  0.1384
12373PP      PP22477  15.113   2.887   2.691  0.2599  0.0592 -0.0145
12374PP      PP22478   3.215   3.615   9.035 -0.1972  0.1030  0.3927
12375PP      PP22479  10.470  11.264   0.347  0.2811  0.0495  0.0593
12376PP      PP22480  15.725  11.107   2.109 -0.0599 -0.3689  0.2935
12377PP      PP22481   0.743  11.418   0.451 -0.3685  0.1600 -0.1763
12378PP      PP22482   9.113  13.283  10.376  0.0039 -0.5791 -0.0471
12379PP      PP22483   5.499  13.528   3.677 -0.2457  0.3201  0.2737
12380PP      PP22484   5.551  14.019   2.395  0.0894 -0.1417 -0.2357
12381PP      PP22485  12.244   5.742   0.658  0.1293 -0.0633 -0.1210
12382PP      PP22486   6.889  13.342  10.369  0.0247  0.1293 -0.1703
12383PP      PP22487   9.846   6.755   3.587  0.1008  0.0938 -0.2206
12384PP      PP22488  12.757   4.891   2.948  0.1959 -0.0186 -0.2850
12385PP      PP22489   3.227   0.914  13.291  0.2903  0.0115  0.0044
12386PP      PP22490   3.514   0.268   4.524  0.1110 -0.2059  0.1109
12387PP      PP22491   1.189  13.776  13.204  0.4137 -0.0480 -0.0078
12388PP      PP22492  13.030   9.867  11.590  0.0825 -0.0346  0.1132
12389PP      PP22493  14.700   2.940  10.418  0.3450  0.0858 -0.1840
12390PP      PP22494   9.720  10.877   2.253  0.2539  0.1336 -0.0905
12391PP      PP22495  15.046   7.053  12.406  0.0566 -0.1749  0.0217
12392PP      PP22496   9.513   0.670   0.115  0.2710 -0.0721  0.0005
12393PP      PP22497   8.532   2.527   3.474  0.1481 -0.0424 -0.1040
12394PP      PP22498  14.990  12.171   8.817  0.0659  0.1244  0.3168
12395PP      PP22499  11.839   5.912   3.402  0.1640 -0.0682 -0.0351
12396PP      PP22500   3.308   0.226   2.378  0.3201  0.0950  0.0126
12397PP      PP22501   1.151   0.749   3.169 -0.0866  0.1741  0.3129
12398PP      PP22502   4.471  15.823  13.329  0.0938  0.2845 -0.0009
12399PP      PP22503   3.413   0.220   9.683  0.1286 -0.0499 -0.0895
12400PP      PP22504   1.030  15.475  12.336 -0.0547 -0.2481  0.0134
12401PP      PP22505  14.231  10.137   0.328  0.0148 -0.1158  0.3722
12402PP      PP22506   2.443   4.108   1.537  0.0335  0.4625  0.0721
12403PP      PP22507   9.260  12.537   3.535  0.1179  0.3230  0.1421
12404PP      PP22508   7.527   4.756   1.534  0.0351 -0.0836  0.1653
12405PP      PP22509  15.863   6.021  11.660 -0.0401  0.1006 -0.2189
12406PP      PP22510   2.541   9.431   4.062  0.1860  0.0748 -0.0644
12407PP      PP22511  13.634  15.600  11.481 -0.0964 -0.0630  0.1306
12408PP      PP22512  11.161  10.842   9.874 -0.1698 -0.0673  0.1056
12409PP      PP22513   8.476  14.219   4.199  0.0688 -0.0541  0.0429
12410PP      PP22514   8.357  13.329  11.147  0.0291 -0.2016 -0.0124
12411PP      PP22515  11.990   3.476   5.326 -0.0748  0.3499  0.1456
12412PP      PP22516   6.787   3.546  12.979  0.4225 -0.0900  0.1722
12413PP      PP22517   7.983   3.549   3.606  0.1522 -0.2325  0.1939
12414PP      PP22518   9.524   7.994   8.561  0.1918  0.0431 -0.1271
12415PP      PP22519  12.751   8.910   1.212 -0.4119 -0.2913  0.1320
12416PP      PP22520  12.812  15.002  12.793 -0.0540  0.0127  0.2487
12417PP      PP22521   3.962  14.594   3.124  0.0035 -0.2971  0.1403
12418PP      PP22522  14.333   6.837  11.269  0.0059 -0.3926  0.2444
12419PP      PP22523  11.942   7.073   3.968  0.2510 -0.2701 -0.1080
12420PP      PP22524   4.353   5.708   5.076  0.1845 -0.1343  0.1374
12421PP      PP22525  15.238  10.856  12.398  0.1287 -0.2193 -0.0574
12422PP      PP22526   2.305  13.802   3.182  0.2320  0.1503  0.0127
12423PP      PP22527  10.731   3.807   3.889 -0.1402  0.1287  0.0306
12424PP      PP22528   3.636  11.616   3.643 -0.1506 -0.1925 -0.0409
12425PP      PP22529  13.889   9.446   3.458 -0.0174 -0.4678  0.0372
12426PP      PP22530   3.355   4.414   1.594 -0.1758  0.1061  0.1393
12427PP      PP22531   5.743  11.488  13.197 -0.2669  0.1982 -0.0618
12428PP      PP22532   0.825   0.989   1.892 -0.1745 -0.2896  0.0552
12429PP      PP22533  10.938  11.648  12.844 -0.3044  0.1758  0.1342
12430PP      PP22534   1.069   1.922   2.077 -0.0016 -0.1785  0.1175
12431PP      PP22535  11.918   9.644   0.747  0.2950  0.0786  0.1365
12432PP      PP22536   1.064   6.839   4.678  0.2426 -0.3681  0.0092
12433PP      PP22537  13.742   7.491  11.919 -0.1267  0.0477  0.1017
12434PP      PP22538   3.938   5.701   0.501 -0.0707 -0.1453  0.0166
12435PP      PP22539  11.349   8.142   2.404 -0.4003 -0.0644 -0.0687
12436PP      PP22540   3.748   9.141  11.593 -0.3343 -0.1631 -0.2481
12437PP      PP22541   9.519   3.663   1.531 -0.0652  0.0089 -0.2943
12438PP      PP22542   7.212   9.647  10.555 -0.0119  0.0067 -0.3861
12439PP      PP22543  14.165   7.450   1.211 -0.3220  0.0935 -0.0311
12440PP      PP22544   3.560   0.690  10.611  0.0379 -0.1117  0.2797
12441PP      PP22545   7.401   2.120   1.322  0.0911 -0.2588 -0.1380
12442PP      PP22546  14.261   6.828  10.796 -0.1059 -0.0196 -0.1362
12443PP      PP22547   0.794   1.747   0.534 -0.2525 -0.2741  0.0454
12444PP      PP22548  14.963  13.116  12.675 -0.2661  0.2082  0.2583
12445PP      PP22549   5.897  11.400  10.942  0.0949 -0.1445 -0.1959
12446PP      PP22550   3.050   7.402   3.393 -0.0089 -0.1929  0.2163
12447PP      PP22551   9.314   5.801   2.664 -0.0432  0.1708  0.0345
12448PP      PP22552   6.170  10.776   4.842  0.0285 -0.2923 -0.0378
12449PP      PP22553   8.917   6.695   0.237 -0.0491  0.2660  0.0123
12450PP      PP22554   2.752   2.321   2.114 -0.0455  0.1704 -0.0241
12451PP      PP22555   4.544  10.859  12.431 -0.0903  0.0797  0.2054
12452PP      PP22556   1.223   6.898   2.077  0.1252  0.2772 -0.2240
12453PP      PP22557   2.710   8.580  12.946  0.0358 -0.1888  0.1661
12454PP      PP22558   9.360   6.829  10.422 -0.0765 -0.0711 -0.2468
12455PP      PP22559   1.341   6.570  11.915  0.0637  0.0082 -0.1571
12456PP      PP22560   3.239   8.244  11.220  0.0163 -0.0704  0.4101
12457PP      PP22561  15.785  13.138  12.229  0.1707  0.0871 -0.3506
12458PP      PP22562   0.774   8.373   2.579  0.1352  0.0746  0.0368
12459PP      PP22563   1.955   1.220   9.955 -0.1667  0.0381  0.0855
12460PP      PP22564   8.204   8.167  13.220  0.1583 -0.0767  0.1328
12461PP      PP22565   7.305   7.910  12.080 -0.1919  0.0966  0.4194
12462PP      PP22566  12.760  15.882  11.696 -0.0284  0.2442  0.1358
12463PP      PP22567   0.798   8.199  11.157 -0.1324  0.0383  0.0878
12464PP      PP22568  10.161   0.950  11.326 -0.4942  0.1028  0.0169
12465PP      PP22569  14.512   6.256   0.324 -0.4170 -0.0468 -0.2111
12466PP      PP22570   8.238   9.092   2.904  0.2212 -0.2867 -0.0137
12467PP      PP22571  12.309   6.783  10.366  0.2552 -0.4259 -0.2574
12468PP      PP22572   9.055   3.068   8.812 -0.2240 -0.1816  0.1467
12469PP      PP22573  10.584  14.299   3.423 -0.3146  0.2958  0.1583
12470PP      PP22574   8.624  11.606   0.192  0.1633 -0.0557  0.2300
12471PP      PP22575   0.783  15.633   8.686 -0.0104 -0.2332 -0.2104
12472PP      PP22576   8.357   7.112  10.390 -0.2172 -0.0374  0.2547
12473PP      PP22577  14.461   2.665   4.156 -0.0526  0.2330  0.0002
12474PP      PP22578  14.934   9.475   0.907 -0.3263  0.1256 -0.1779
12475PP      PP22579  14.796   9.824   2.902 -0.1855 -0.0236 -0.1411
12476PP      PP22580  14.180  11.234  11.198  0.2420 -0.2992 -0.0669
12477PP      PP22581   7.803   6.220   0.091 -0.1217  0.2389  0.0959
12478PP      PP22582  13.753  13.797   9.253 -0.1918  0.2896  0.0136
12479PP      PP22583   8.209   1.584   9.204 -0.0929  0.1382 -0.2549
12480PP      PP22584  12.148   6.490  11.368  0.0615  0.2719 -0.0186
12481PP      PP22585   6.040   1.382   9.378 -0.0445  0.2129  0.0459
12482PP      PP22586  10.686  13.383   3.545 -0.0246  0.1837  0.1156
12483PP      PP22587   7.559  11.699   1.591  0.3295  0.3011 -0.2100
12484PP      PP22588   6.022   8.597   1.496  0.1429  0.1740  0.0207
12485PP      PP22589   6.677   5.500   0.102  0.1342  0.1739 -0.4146
12486PP      PP22590  11.283   1.398   0.953  0.3543 -0.2252  0.0831
12487PP      PP22591  12.296  10.309   2.367 -0.2223 -0.1321 -0.1454
12488PP      PP22592   8.386   9.705   0.984  0.0842  0.0155  0.2252
12489PP      PP22593  11.358   2.761  11.761  0.2049 -0.0827 -0.1283
12490PP      PP22594   8.127  12.656   0.772 -0.0626 -0.1595  0.0115
12491PP      PP22595  12.076   1.948   0.611 -0.0481  0.1102 -0.0677
12492PP      PP22596   3.713   2.584   4.428  0.0874  0.0175 -0.1619
12493PP      PP22597   6.590  14.587  10.099  0.0895 -0.0112 -0.1220
12494PP      PP22598   8.718   9.302  12.594 -0.0746  0.0409 -0.1111
12495PP      PP22599  14.989   4.860  11.515  0.2850  0.1063 -0.1681
12496PP      PP22600  13.526  10.638  11.761 -0.2447 -0.0466 -0.4150
12497PP      PP22601   9.750   7.204   1.257 -0.0491  0.3594  0.1136
12498PP      PP22602  15.313   8.703   3.972 -0.1234  0.1222  0.2055
12499PP      PP22603   5.610  15.695   8.948  0.0305  0.3165 -0.0396
12500PP      PP22604  12.819   8.711  10.604 -0.0213 -0.0703 -0.2194
12501PP      PP22605   8.059  15.786   8.681 -0.0669 -0.0763  0.1298
12502PP      PP22606   9.416   5.119   3.780  0.2162 -0.0204  0.2826
12503PP      PP22607   5.103   9.115   0.469  0.3770 -0.0197 -0.2839
12504PP      PP22608  11.234   5.780  11.245 -0.2201  0.3930  0.1757
12505PP      PP22609  10.067   5.943  10.921 -0.1650 -0.1567  0.0456
12506PP      PP22610  15.576   0.712   9.095  0.3093 -0.4335 -0.1054
12507PP      PP22611   5.902   5.364   4.211 -0.4271 -0.1325  0.1022
12508PP      PP22612   6.195   6.317   0.605  0.0379  0.0849  0.1463
12509PP      PP22613  13.587  13.690   1.177  0.0498 -0.0283 -0.2625
12510PP      PP22614  11.525  13.524   0.304  0.0023 -0.0266  0.3345
12511PP      PP22615  14.208   9.247   1.452 -0.3358  0.1238 -0.0405
12512PP      PP22616  13.505   8.517  10.073 -0.2271 -0.0701 -0.2621
12513PP      PP22617  11.590   1.564  12.866 -0.2989 -0.0762 -0.0473
12514PP      PP22618   7.438  14.712   9.161 -0.0067 -0.0580  0.1310
12515PP      PP22619   7.756   9.133   3.197 -0.0755 -0.0078 -0.1573
12516PP      PP22620  12.730   2.840  11.470 -0.1104  0.3593  0.1895
12517PP      PP22621   4.101   1.367   3.859 -0.0426 -0.1477  0.1006
12518PP      PP22622   9.699  11.671  10.108 -0.3845  0.0766  0.1216
12519PP      PP22623   3.319   3.716   1.073 -0.3430  0.1523  0.0783
12520PP      PP22624  15.480   1.315  12.928 -0.0022  0.0790 -0.1000
12521PP      PP22625   1.032   5.069  11.661 -0.0419 -0.0618 -0.1305
12522PP      PP22626   5.979   3.810  11.386  0.1861 -0.0283  0.2607
12523PP      PP22627  12.818   8.020   8.528  0.2258  0.0281 -0.1698
12524PP      PP22628   8.033   7.100   0.872  0.0729 -0.2397  0.0480
12525PP      PP22629   6.308   4.643   0.865  0.1868  0.3950 -0.0731
12526PP      PP22630   4.694  13.086  11.198  0.0005  0.5141 -0.0855
12527PP      PP22631  13.727   6.026   9.716  0.2491 -0.0742 -0.0867
12528PP      PP22632   5.920  14.445   1.781 -0.0956 -0.1662 -0.0410
12529PP      PP22633  13.457   1.860  13.284 -0.1844  0.0696  0.2451
12530PP      PP22634   3.665   4.875  13.403  0.2143 -0.1195 -0.2692
12531PP      PP22635  14.410  13.174   9.440 -0.2362  0.2218  0.1427
12532PP      PP22636  15.060   9.841  10.324  0.0859  0.1996 -0.1046
12533PP      PP22637   9.678   5.343  12.117  0.0047 -0.1405  0.1396
12534PP      PP22638   7.991  14.974  11.957 -0.0668 -0.0306  0.2786
12535PP      PP22639  12.507  13.478   3.789  0.1166  0.0653 -0.2110
12536PP      PP22640  11.231   9.884  12.454 -0.3011  0.2494 -0.0003
12537PP      PP22641  13.740  11.400  11.499  0.2096 -0.2513  0.2900
12538PP      PP22642   8.061  14.665   1.899 -0.1287  0.1350  0.1795
12539PP      PP22643   3.788   0.678   1.015  0.1528  0.1043  0.0805
12540PP      PP22644   0.924   2.565  12.817  0.0533  0.0124 -0.2806
12541PP      PP22645   1.870   5.001  11.724  0.1615 -0.0548 -0.0422
12542PP      PP22646   6.865   1.215  12.275 -0.0546 -0.2339  0.2292
12543PP      PP22647  14.032  13.550   0.856  0.1851  0.3398  0.1760
12544PP      PP22648  10.316   0.015  13.075 -0.3816  0.0235 -0.2517
12545PP      PP22649   8.779  12.527  11.196 -0.0603 -0.2298  0.2327
12546PP      PP22650   9.821  10.583  11.099 -0.2023  0.0692  0.0750
12547PP      PP22651  12.712   1.927  11.198 -0.2922 -0.3249 -0.1057
12548PP      PP22652  14.483   3.761   3.758  0.0816 -0.1597  0.1992
12549PP      PP22653  13.074  13.559   1.483 -0.1513 -0.0145 -0.0382
12550PP      PP22654  13.414   2.727   3.552  0.2977  0.0505 -0.0899
12551PP      PP22655  10.767   8.811   9.478  0.2476  0.0298 -0.3269
12552PP      PP22656  11.677   9.302  12.968  0.0816  0.3383 -0.1460
12553PP      PP22657   6.577  15.636  11.583  0.4175  0.1711  0.1014
12554PP      PP22658   5.500   5.022   8.944  0.0389 -0.1681 -0.2363
12555PP      PP22659  14.048  13.379   2.928  0.0674  0.0616 -0.0523
12556PP      PP22660   7.297  11.940  10.173 -0.0691  0.1165  0.0050
12557PP      PP22661  15.097   2.448  11.565 -0.1900 -0.0177 -0.3115
12558PP      PP22662   4.904  11.165   1.091  0.0659 -0.3385 -0.2033
12559PP      PP22663   4.756  11.724  12.194 -0.4757  0.0253 -0.4111
12560PP      PP22664  11.697   5.973   0.881  0.2044  0.3932 -0.0624
12561PP      PP22665   0.362   1.845  11.670  0.5506 -0.1799 -0.0762
12562PP      PP22666   9.093  10.880  10.548  0.2435  0.1878 -0.0348
12563PP      PP22667  12.991  10.482   0.253  0.1716 -0.1055  0.0486
12564PP      PP22668   4.544   6.092   3.356  0.0236  0.1833 -0.1584
12565PP      PP22669  12.495  12.025   3.109 -0.1260  0.1281  0.1053
12566PP      PP22670   6.010   1.650   1.741 -0.2310  0.3450 -0.2810
12567PP      PP22671   1.574   8.638   1.068  0.3094  0.1952 -0.0887
12568PP      PP22672   9.020   3.551   9.329  0.2666  0.1477 -0.0046
12569PP      PP22673   1.036   4.522  11.835 -0.0253 -0.0928 -0.0460
12570PP      PP22674  14.568   2.014   1.754  0.3055 -0.0793 -0.1064
12571PP      PP22675  13.507   0.449  11.981 -0.1533 -0.1250 -0.1336
12572PP      PP22676   1.014   6.939   0.566  0.2086 -0.1711  0.0091
12573PP      PP22677  13.241   9.667   2.464 -0.1404 -0.2440 -0.0728
12574PP      PP22678   3.766   4.332  10.153 -0.2960 -0.1945 -0.1636
12575PP      PP22679  13.108   2.379   1.473 -0.0960  0.2535 -0.1165
12576PP      PP22680   5.171  11.943   4.871 -0.2723  0.3410  0.1099
12577PP      PP22681  11.674   0.771   1.368  0.2106 -0.2568  0.1258
12578PP      PP22682   2.158   3.039   8.942 -0.1259 -0.0139  0.0052
12579PP      PP22683   3.225   1.503   3.290  0.3348 -0.0838  0.1643
12580PP      PP22684  12.956  15.233  13.236 -0.1186  0.2571 -0.1726
12581PP      PP22685   7.370   1.427   3.696  0.1572 -0.0461  0.1826
12582PP      PP22686   5.630   0.959  12.136 -0.1787 -0.1646 -0.0735
12583PP      PP22687   4.209  14.438   9.218 -0.0541 -0.1120  0.0646
12584PP      PP22688   5.118  12.511   3.251 -0.2805 -0.1217  0.2501
12585PP      PP22689   2.269  11.432   4.135  0.2652 -0.0825 -0.0144
12586PP      PP22690  11.876   3.296  11.781  0.1290 -0.2394  0.3251
12587PP      PP22691   1.412  14.270   2.857  0.3984  0.1384  0.0974
12588PP      PP22692   3.494   7.262  10.167  0.0785 -0.4169  0.1284
12589PP      PP22693  12.737   4.710   1.282  0.1321 -0.2888  0.2353
12590PP      PP22694  12.926  11.365  12.822 -0.1579 -0.1263  0.3220
12591PP      PP22695   7.533   7.670   1.289  0.2950  0.2764  0.0499
12592PP      PP22696   6.668  14.385   4.826  0.1086  0.0685 -0.4037
12593PP      PP22697  15.270   8.055   4.702 -0.0957 -0.0410  0.0788
12594PP      PP22698   0.689  13.277   9.627 -0.1338  0.1568 -0.3559
12595PP      PP22699   5.000   1.207  12.803 -0.4077 -0.4856 -0.0342
12596PP      PP22700  15.142   0.909   4.507 -0.3187  0.2035 -0.1370
12597PP      PP22701   8.415  15.251   0.574  0.0749  0.2360 -0.0086
12598PP      PP22702   9.917   1.817   9.299 -0.0552 -0.0831  0.0218
12599PP      PP22703   5.881   5.610  11.707 -0.0736 -0.0288 -0.1763
12600PP      PP22704   8.765   9.997   3.846 -0.0763 -0.3845  0.3750
12601PP      PP22705   1.001   2.218   2.475  0.0865 -0.4442 -0.2274
12602PP      PP22706   6.569   5.698   2.906 -0.0019 -0.0499 -0.0374
12603PP      PP22707  10.440   4.147   9.553 -0.2247  0.2037 -0.0582
12604PP      PP22708  11.171   6.330  11.995  0.1642  0.1661 -0.0086
12605PP      PP22709  12.686   1.589   1.940  0.0380  0.0529  0.0973
12606PP      PP22710  12.955   4.269  12.914 -0.0569 -0.0150  0.1959
12607PP      PP22711  13.987   8.792  10.681 -0.1699  0.2646 -0.0440
12608PP      PP22712   0.142   5.856   2.658 -0.0284  0.1496  0.0371
12609PP      PP22713   3.972   2.039  12.942  0.0876 -0.0270  0.5117
12610PP      PP22714   5.800   2.187  12.823 -0.0620  0.1601  0.0632
12611PP      PP22715   0.470   0.510   2.504 -0.0136  0.1017 -0.1545
12612PP      PP22716  15.224  11.992   9.199  0.1855 -0.1285  0.3993
12613PP      PP22717  15.763   7.816  11.317 -0.1559  0.0581  0.0437
12614PP      PP22718  10.123   1.668   0.781 -0.0750 -0.2635 -0.0099
12615PP      PP22719   3.450   2.341  11.637  0.0096  0.2357  0.2173
12616PP      PP22720   4.662  15.085   1.697 -0.1778  0.0095 -0.0989
12617PP      PP22721   4.162   8.340   3.410 -0.0626  0.0474  0.1945
12618PP      PP22722   4.182   7.011   3.748  0.4144  0.2386 -0.2766
12619PP      PP22723   8.688   7.170   4.190 -0.3847  0.2100 -0.1071
12620PP      PP22724  10.769   4.716   0.412  0.0770  0.0024  0.0333
12621PP      PP22725   5.023  13.022  13.308 -0.0515 -0.0355 -0.1254
12622PP      PP22726   7.463   2.903   8.398  0.0621  0.0348  0.1035
12623PP      PP22727  14.138   7.607   3.616  0.1262 -0.2680  0.1324
12624PP      PP22728   4.686  15.139  11.989 -0.0549 -0.3073 -0.3293
12625PP      PP22729   1.691   9.781  10.280  0.1502  0.0713  0.2546
12626PP      PP22730  12.629   6.171   4.073 -0.0460 -0.1179 -0.0932
12627PP      PP22731   5.838  12.626   1.969 -0.1720 -0.0954 -0.0194
12628PP      PP22732   7.487   4.388  10.570  0.1350  0.3553 -0.0111
12629PP      PP22733   7.021   7.185  11.694 -0.2227  0.0643 -0.2317
12630PP      PP22734   7.676  15.607   1.850  0.1930  0.2901  0.2731
12631PP      PP22735  13.226  12.273   2.588 -0.0338  0.1958  0.2335
12632PP      PP22736  13.088   9.705   9.316 -0.0462  0.1354  0.0859
12633PP      PP22737  14.818  11.888   0.318 -0.1145  0.2027  0.0190
12634PP      PP22738   4.073   7.298   9.834  0.0683 -0.1564  0.2511
12635PP      PP22739   9.267   9.189   0.120  0.2993 -0.1269 -0.0012
12636PP      PP22740  12.284   2.647  11.788 -0.2199  0.3630  0.4027
12637PP      PP22741   8.928  15.751  11.598 -0.1633 -0.2375 -0.0625
12638PP      PP22742   8.310  15.274   9.067 -0.1127 -0.0840  0.2293
12639PP      PP22743   7.376   4.200   9.201 -0.0367 -0.1007 -0.1330
12640PP      PP22744  10.016   6.159   2.303  0.0689 -0.1237 -0.1040
12641PP      PP22745  10.347   9.433   3.431 -0.0056  0.0507  0.0771
12642PP      PP22746  12.426  14.547   3.448  0.0328  0.2861  0.3091
12643PP      PP22747   8.521   8.324   9.582 -0.2019 -0.0616 -0.1310
12644PP      PP22748  15.089  13.820   2.774 -0.1257  0.0955  0.1057
12645PP      PP22749   0.485  14.312  11.938 -0.0451 -0.1839  0.0128
12646PP      PP22750   8.260   6.367   3.976 -0.3113  0.1391  0.0949
12647PP      PP22751   7.934  12.495   1.221 -0.1232 -0.1661  0.0325
12648PP      PP22752   0.211   6.288   2.313  0.1937 -0.2246 -0.3651
12649PP      PP22753   1.885   6.563  12.809  0.0572 -0.0542  0.2307
12650PP      PP22754   4.697   3.549   2.334  0.3046 -0.0547 -0.2619
12651PP      PP22755   1.510   3.096   0.947 -0.0744 -0.2969 -0.2382
12652PP      PP22756   2.654   4.269   4.693 -0.2478  0.2719  0.2326
12653PP      PP22757   8.493  11.675   8.424 -0.0361 -0.3347  0.2572
12654PP      PP22758   4.393  14.036   1.079 -0.2570 -0.1478  0.1749
12655PP      PP22759   5.002  11.305  11.975  0.3309  0.0985  0.3591
12656PP      PP22760  12.202   4.922   1.982 -0.1507 -0.0052 -0.2119
12657PP      PP22761   0.334  15.520   9.894  0.0764 -0.1041 -0.1165
12658PP      PP22762  14.364   8.118   1.318 -0.3477  0.2534  0.1871
12659PP      PP22763   2.451   1.827   3.895  0.3046 -0.1136 -0.1131
12660PP      PP22764   5.858   7.080   4.160 -0.2229  0.1675 -0.1211
12661PP      PP22765  11.413   8.247  10.029 -0.3012 -0.1386  0.0026
12662PP      PP22766   2.176   2.326   2.286 -0.1856  0.0492 -0.2157
12663PP      PP22767   9.509   8.598   9.315 -0.1479 -0.0042  0.2612
12664PP      PP22768  15.678   2.364  10.768 -0.0513  0.4490  0.0685
12665PP      PP22769  13.709  14.567  12.280  0.2536 -0.1073  0.0360
12666PP      PP22770   2.024   1.424   9.438  0.0287  0.0120  0.2582
12667PP      PP22771   6.906   4.642  11.659 -0.1914  0.3534  0.1912
12668PP      PP22772   9.302  11.272   8.794 -0.1634 -0.3305  0.0581
12669PP      PP22773   0.881   4.374   4.401 -0.1253  0.1471  0.0019
12670PP      PP22774   7.969  14.888   0.799 -0.2580  0.1429  0.3356
12671PP      PP22775  12.794   2.425   0.590  0.0499 -0.0221 -0.0145
12672PP      PP22776   1.959   3.394   4.760  0.0611  0.1018  0.1438
12673PP      PP22777   6.035   8.392  10.541  0.0725  0.3280 -0.1139
12674PP      PP22778  14.295   4.370   4.619 -0.0941 -0.0986  0.0147
12675PP      PP22779   5.867   7.896   3.412  0.0769  0.1485  0.0067
12676PP      PP22780   8.350   0.268   4.000  0.2338  0.1992  0.0761
12677PP      PP22781   5.321   7.871  12.984  0.1391 -0.1150  0.2552
12678PP      PP22782   4.906  11.218  12.481 -0.0097 -0.0306 -0.0582
12679PP      PP22783  10.597   9.437  11.297  0.3490 -0.2913 -0.0223
12680PP      PP22784   4.859   4.032   2.431  0.1797 -0.0647 -0.2749
12681PP      PP22785   7.764  13.871   0.435  0.4290  0.1752 -0.1285
12682PP      PP22786   8.890  13.501   3.088 -0.1494  0.1761  0.2703
12683PP      PP22787  10.367   5.404   9.886  0.2895 -0.1838  0.4474
12684PP      PP22788   5.713   1.873   2.845  0.2444  0.0214 -0.1030
12685PP      PP22789   8.155   1.396  10.529 -0.0257 -0.1468 -0.0777
12686PP      PP22790  12.674   1.551  10.428 -0.2503  0.0604  0.1921
12687PP      PP22791   9.443  13.206  10.023 -0.0068  0.0372 -0.2211
12688PP      PP22792   7.254   5.110   9.251 -0.4219 -0.1246  0.2313
12689PP      PP22793   7.111  13.772   4.649 -0.0393 -0.0472  0.0972
12690PP      PP22794  10.856   6.696  10.273 -0.0860 -0.0225 -0.1239
12691PP      PP22795   5.018   1.543   1.682 -0.0446 -0.1335 -0.2092
12692PP      PP22796   4.203   3.274  12.683 -0.5278 -0.1859 -0.0578
12693PP      PP22797   1.010  13.409   0.616 -0.0156 -0.1189  0.1214
12694PP      PP22798  12.980   6.139   3.285 -0.0926  0.4189  0.1939
12695PP      PP22799   1.662  12.500   1.972  0.0269  0.2190 -0.0325
12696PP      PP22800   7.563   5.877   4.343  0.0408  0.2399 -0.0730
12697PP      PP22801   4.489   6.654  11.155 -0.0991  0.0358 -0.2299
12698PP      PP22802   1.656   9.136   9.900 -0.0353  0.0593 -0.1482
12699PP      PP22803   8.812   3.258   9.983 -0.2988  0.2090 -0.2355
12700PP      PP22804   7.081   2.983   2.612  0.0783  0.0892 -0.1361
12701PP      PP22805   5.817  11.864   0.275 -0.0783 -0.1124  0.0610
12702PP      PP22806  15.344  11.716   3.361  0.3163  0.0216 -0.0711
12703PP      PP22807  10.543  12.458   9.698 -0.1421  0.0034 -0.1796
12704PP      PP22808  13.036   5.915  11.487  0.2783 -0.3759  0.0679
12705PP      PP22809   6.780   2.064   2.861  0.1669  0.1174 -0.1560
12706PP      PP22810   1.717  11.073  10.511  0.0720  0.2749 -0.2109
12707PP      PP22811   5.687  15.429  12.690 -0.0998  0.0762  0.0034
12708PP      PP22812  12.921   9.865   3.564 -0.1567 -0.2079 -0.0328
12709PP      PP22813  12.485   1.346   0.753  0.1055 -0.0732  0.1659
12710PP      PP22814   1.939  10.835   3.357  0.1181 -0.0295 -0.1821
12711PP      PP22815  14.384   5.466   2.917  0.0825  0.0869  0.1117
12712PP      PP22816   4.864   7.223  10.221 -0.1458  0.4289  0.0602
12713PP      PP22817  11.189   4.560   4.565  0.1016  0.0940 -0.0082
12714PP      PP22818  11.971  14.728  12.497 -0.0268  0.0999  0.2710
12715PP      PP22819   3.482   2.861  11.545 -0.2359 -0.0993 -0.1444
12716PP      PP22820  12.604  15.505   8.925  0.3031 -0.0524  0.0928
12717PP      PP22821   1.857   5.470   2.158 -0.2691 -0.1556 -0.0787
12718PP      PP22822  12.200   2.571  11.283  0.3063 -0.1431  0.0324
12719PP      PP22823   6.518   5.815   2.394 -0.4615 -0.0583 -0.0233
12720PP      PP22824   3.302   8.274   2.931 -0.3111 -0.0983 -0.0685
12721PP      PP22825   1.863  10.161  12.233  0.1744 -0.2932  0.0263
12722PP      PP22826   5.755  14.834   0.374 -0.3551 -0.0230 -0.1272
12723PP      PP22827  11.337   8.606  12.147 -0.2077  0.1427  0.1848
12724PP      PP22828   8.760   9.322  10.221 -0.0815 -0.1455  0.1482
12725PP      PP22829   6.302  10.888   2.984  0.0636  0.0353 -0.0445
12726PP      PP22830   9.703  10.770   8.613 -0.1498  0.0736  0.2299
12727PP      PP22831  12.216   5.549   0.175  0.2136  0.1803  0.1747
12728PP      PP22832   7.641  15.431  13.149 -0.3703 -0.0959 -0.0939
12729PP      PP22833   9.376   2.050  12.033  0.1964 -0.1354  0.2845
12730PP      PP22834   5.215  13.160   2.574 -0.0259  0.0510 -0.2346
12731PP      PP22835   2.041  14.755   9.851 -0.0394 -0.1335  0.2193
12732PP      PP22836  10.468   2.125   2.373 -0.2894 -0.1774 -0.0547
12733PP      PP22837  15.890  12.426  10.554  0.1599  0.2043 -0.0030
12734PP      PP22838   9.994   8.395   8.877  0.3512 -0.0713 -0.1529
12735PP      PP22839   0.284   4.690   9.270  0.1031 -0.0373 -0.0366
12736PP      PP22840   0.513   5.307   4.071  0.0135 -0.0018  0.1429
12737PP      PP22841  12.971  14.296   9.498  0.3714  0.0164  0.0660
12738PP      PP22842  12.203   3.243   1.159  0.1809 -0.1634  0.1671
12739PP      PP22843  14.056  15.286   1.032  0.1927 -0.1214  0.0569
12740PP      PP22844   9.308   8.309   3.738  0.1994 -0.1696  0.0652
12741PP      PP22845   8.957   9.657  12.087 -0.0744 -0.1664  0.0404
12742PP      PP22846  13.352   1.832   3.335  0.2378 -0.1167 -0.3679
12743PP      PP22847   6.450  15.244   8.883  0.1666 -0.1650 -0.0894
12744PP      PP22848   8.715   7.448   0.396 -0.0996  0.0824  0.1895
12745PP      PP22849   3.655  10.145  11.141 -0.0264  0.2380 -0.1959
12746PP      PP22850  13.373   5.624   4.428 -0.2228 -0.0354  0.0988
12747PP      PP22851   4.222   2.980  13.106 -0.1877  0.0922 -0.2587
12748PP      PP22852   5.243  11.976  12.005  0.0627 -0.0666  0.2512
12749PP      PP22853  15.787   6.654   2.532 -0.0920  0.1046 -0.0361
12750PP      PP22854   8.178  10.643   2.623 -0.2288 -0.0405  0.1383
12751PP      PP22855  14.279   2.335   1.406 -0.0348 -0.0613  0.0470
12752PP      PP22856   9.254   7.313  10.265 -0.0282 -0.2257 -0.1902
12753PP      PP22857   9.853  10.363  13.157  0.4533 -0.3038 -0.3557
12754PP      PP22858   5.935  14.255   3.063 -0.3054  0.1207 -0.1167
12755PP      PP22859   6.372   1.398  11.116  0.1141  0.0193 -0.1895
12756PP      PP22860   3.794   2.007  12.425  0.2070 -0.1043  0.2411
12757PP      PP22861   5.584   9.768  11.198 -0.0277  0.1732 -0.2470
12758PP      PP22862  10.225  13.503   3.713  0.2011 -0.0151  0.1640
12759PP      PP22863  12.488  10.983  12.982 -0.1380 -0.2505  0.2876
12760PP      PP22864   0.361   9.667   3.566  0.1369  0.1337 -0.0607
12761PP      PP22865   6.314  10.783   1.621 -0.0152 -0.2058  0.0397
12762PP      PP22866  14.460   0.349   3.143 -0.2315  0.2242  0.2760
12763PP      PP22867   4.010   0.599  13.174 -0.1913 -0.2559 -0.0011
12764PP      PP22868   2.576   0.890  12.851 -0.2675 -0.0072  0.1850
12765PP      PP22869   8.451  11.350   9.225  0.1323 -0.0225 -0.0551
12766PP      PP22870  12.785   5.003   0.861  0.1940  0.3519 -0.0347
12767PP      PP22871  13.659   9.270  10.831 -0.1089  0.1637 -0.0229
12768PP      PP22872   3.126   1.024   1.803  0.0496  0.1275 -0.3160
12769PP      PP22873   1.051   1.002   4.264 -0.0592 -0.1819 -0.2758
12770PP      PP22874   6.601   5.050   0.572 -0.0952  0.0568  0.0384
12771PP      PP22875   8.991  10.154   1.471  0.0592 -0.0617 -0.0121
12772PP      PP22876   6.405   9.632   9.976  0.1196 -0.1836  0.1499
12773PP      PP22877   2.737   5.174  11.007  0.2828 -0.1279  0.0008
12774PP      PP22878  10.836   2.853  13.268 -0.2633 -0.0867 -0.1464
12775PP      PP22879  14.305   8.800   9.179  0.1072 -0.1908 -0.1109
12776PP      PP22880  13.716  14.151  12.543 -0.1162 -0.2101  0.2936
12777PP      PP22881   7.231   6.496   4.809  0.5599  0.0110 -0.1565
12778PP      PP22882   5.404   7.705  12.403  0.2453  0.2544 -0.1104
12779PP      PP22883   6.198   8.740  11.576  0.2077 -0.0569 -0.0501
12780PP      PP22884  13.515  13.000   2.312  0.1527  0.0137  0.1249
12781PP      PP22885  10.372  14.794   1.537  0.2996  0.0397 -0.2476
12782PP      PP22886  15.284   6.383   2.879  0.3445  0.0840 -0.1610
12783PP      PP22887   3.363  15.688   1.458 -0.1653 -0.1351  0.3370
12784PP      PP22888   6.395   0.290  12.333  0.1311  0.0493  0.0831
12785PP      PP22889  12.598  15.461  12.918  0.2790 -0.1050  0.0814
12786PP      PP22890  12.600  14.524   3.953 -0.2852  0.2449  0.2378
12787PP      PP22891   3.033   6.017  10.226 -0.0881 -0.1695  0.1965
12788PP      PP22892   4.117  15.109  10.740 -0.2587 -0.1141 -0.0298
12789PP      PP22893   1.678   2.849   3.209 -0.0967 -0.1910  0.3735
12790PP      PP22894   8.118  15.784  12.008 -0.1007  0.0046 -0.2182
12791PP      PP22895   2.780  13.505   2.417 -0.1777  0.5821  0.2212
12792PP      PP22896   7.066   2.519   3.842 -0.0915 -0.0417  0.1578
12793PP      PP22897   8.069   2.180   8.478  0.3052  0.1412  0.3935
12794PP      PP22898   0.769   1.818  10.053 -0.0454  0.0119  0.2351
12795PP      PP22899  10.239   6.353   0.227 -0.1379  0.0458  0.1745
12796PP      PP22900  15.464   8.281  12.419  0.2704 -0.3027 -0.0910
12797PP      PP22901   1.177   0.973   2.706  0.1242 -0.3617  0.0702
12798PP      PP22902   5.572  13.905  10.065  0.0842  0.0144  0.4019
12799PP      PP22903   0.764   0.909  12.967 -0.0731  0.1090 -0.0517
12800PP      PP22904   5.695   8.117  12.763 -0.1444  0.0864  0.2217
12801PP      PP22905  11.988   9.307  12.422 -0.1165 -0.0474 -0.0222
12802PP      PP22906  11.106   3.899   8.357 -0.2328  0.1772  0.4252
12803PP      PP22907  10.202  14.331  11.900  0.0116  0.2055  0.2013
12804PP      PP22908   6.432  10.950  10.042 -0.0356 -0.1835 -0.2246
12805PP      PP22909   4.852   4.886  13.037 -0.1079 -0.1528 -0.0790
12806PP      PP22910   4.083   6.099   1.292  0.1170 -0.0306  0.0683
12807PP      PP22911   1.737   4.272   0.262 -0.4956  0.3008  0.0981
12808PP      PP22912   4.937   9.765   4.455 -0.1718 -0.4250  0.3121
12809PP      PP22913  13.334   8.415   2.178 -0.1390 -0.0648 -0.0346
12810PP      PP22914  13.709   6.006   1.566  0.1672  0.1481 -0.2013
12811PP      PP22915   7.664  13.580   9.361 -0.0245  0.3167 -0.0515
12812PP      PP22916   7.205   4.732   4.368  0.1554 -0.3023  0.2842
12813PP      PP22917   2.571  10.626   1.436  0.0252  0.1829 -0.0511
12814PP      PP22918   1.727  10.694  12.548 -0.0601 -0.1696  0.1643
12815PP      PP22919   6.732   3.353  12.536  0.0850  0.0811 -0.0569
12816PP      PP22920  11.799   5.520   0.623  0.0737  0.1426  0.3050
12817PP      PP22921   8.031  10.889  11.626  0.2024  0.4136  0.3324
12818PP      PP22922   9.449   9.531  10.631  0.4149 -0.0553 -0.0158
12819PP      PP22923   8.164   2.097   3.527  0.1137  0.1225  0.1135
12820PP      PP22924  13.895   3.468   1.005  0.0506 -0.0131  0.1552
12821PP      PP22925   8.555   1.801  11.907  0.0598 -0.1510 -0.0765
12822PP      PP22926   7.470   3.146   2.427  0.0354  0.1918  0.1475
12823PP      PP22927  14.171  13.210   0.345 -0.2674  0.3262  0.0866
12824PP      PP22928  10.241   8.502   4.218  0.0365  0.3967  0.0069
12825PP      PP22929   6.996  14.307  13.277 -0.1925 -0.0133  0.0223
12826PP      PP22930   7.027   7.281   1.469  0.3717  0.1776 -0.0948
12827PP      PP22931   3.345  12.150   9.571 -0.2213  0.1681  0.2513
12828PP      PP22932   9.089  14.699   9.848  0.1353 -0.0138  0.0399
12829PP      PP22933   8.314  11.441   1.791  0.2229 -0.0784  0.2942
12830PP      PP22934  14.883  11.987   2.545 -0.2799 -0.0704  0.0854
12831PP      PP22935   9.700  12.988  10.959  0.2953 -0.1284 -0.1884
12832PP      PP22936  14.593   7.718   1.471  0.0419 -0.5323 -0.0398
12833PP      PP22937   9.575   7.175   1.942 -0.0588  0.1877 -0.0816
12834PP      PP22938   4.935  14.247   3.516  0.0193 -0.2235  0.1968
12835PP      PP22939   7.339   9.761  12.426 -0.1134  0.2304  0.2286
12836PP      PP22940   2.100  12.263  11.594 -0.1233 -0.3461  0.1907
12837PP      PP22941   2.190   3.324   0.443 -0.1410 -0.2432 -0.2821
12838PP      PP22942   9.422  12.728   8.463  0.0382 -0.3669  0.0256
12839PP      PP22943   5.315   6.752   1.666  0.1124  0.0906  0.4025
12840PP      PP22944   8.359   6.668  12.860 -0.0140 -0.1978 -0.2546
12841PP      PP22945   7.342   9.004   1.173 -0.3280 -0.0094  0.0724
12842PP      PP22946   8.167  11.373   0.850  0.1974  0.0345  0.2887
12843PP      PP22947   3.734   2.834  13.252 -0.1662 -0.0078 -0.0317
12844PP      PP22948  13.185   8.120  12.713 -0.0086 -0.4859  0.1912
12845PP      PP22949  14.747  13.718   1.003 -0.2102 -0.1366  0.2462
12846PP      PP22950  15.098  15.637   0.635 -0.2178 -0.1838 -0.3458
12847PP      PP22951  14.856  15.315   2.877 -0.0727 -0.0431 -0.0127
12848PP      PP22952  13.684   2.775   4.837  0.1088 -0.2771  0.0011
12849PP      PP22953   8.160  15.413   3.313  0.0120 -0.1704 -0.3032
12850PP      PP22954   6.595   6.498   9.618  0.0371 -0.0479  0.0747
12851PP      PP22955  10.646   5.385   0.982 -0.1021 -0.2886  0.1566
12852PP      PP22956   4.995   1.357   9.816 -0.0082 -0.1473  0.2572
12853PP      PP22957   3.644   6.668   3.448 -0.1528  0.0833 -0.1004
12854PP      PP22958   4.912   2.848   4.295 -0.1298  0.0383 -0.1650
12855PP      PP22959  10.677  14.135  12.408  0.0128  0.1599 -0.1498
12856PP      PP22960  14.995  14.717   3.518  0.0672 -0.0053 -0.5009
12857PP      PP22961  10.102  13.085  11.190  0.0806 -0.0580 -0.1924
12858PP      PP22962   9.829  10.703   1.444  0.0660 -0.3602 -0.1208
12859PP      PP22963   1.455  11.638  13.122 -0.1322  0.1018 -0.0191
12860PP      PP22964   2.761  13.569  10.364 -0.1299 -0.3038 -0.1922
12861PP      PP22965  14.198  12.355  11.494 -0.2879  0.0454 -0.0660
12862PP      PP22966   6.484   6.941   9.323 -0.1859 -0.2791 -0.3062
12863PP      PP22967   1.371   4.520  12.237 -0.0816 -0.2822 -0.0104
12864PP      PP22968  15.218   9.924   3.287  0.0121  0.0552 -0.1114
12865PP      PP22969   7.854   6.187   2.839 -0.0597 -0.0382  0.2030
12866PP      PP22970   9.723   7.384  10.478 -0.1002 -0.1470 -0.3142
12867PP      PP22971   1.114  11.247  13.122  0.2313 -0.1259 -0.0132
12868PP      PP22972  10.589  14.602  10.661  0.1282  0.0051 -0.1355
12869PP      PP22973   6.155  13.956   9.178  0.1155  0.0117  0.2530
12870PP      PP22974   5.669  12.653  11.580  0.0288  0.1113  0.0142
12871PP      PP22975   5.659  11.200   5.123  0.0073 -0.0044  0.1812
12872PP      PP22976   9.178   8.635  10.606 -0.0008  0.2069  0.3793
12873PP      PP22977   8.607   7.904   3.165  0.0035  0.0246  0.3261
12874PP      PP22978  15.658  12.534   3.139  0.1968  0.0394  0.0733
12875PP      PP22979   6.848   2.308   0.126  0.1431 -0.3013  0.0209
12876PP      PP22980   6.331   8.698  10.836 -0.0038  0.1475  0.3384
12877PP      PP22981  13.207   8.875   9.379 -0.2894 -0.0124 -0.3998
12878PP      PP22982   5.778   0.640  11.811  0.1059  0.0201 -0.1470
12879PP      PP22983   4.439   0.013   3.141  0.0305 -0.0483  0.1462
12880PP      PP22984  12.069  13.329   2.951 -0.0691  0.1570 -0.0547
12881PP      PP22985   4.647   0.134   2.661 -0.0699 -0.0875 -0.0719
12882PP      PP22986  11.843  13.821   2.969  0.1499 -0.2717 -0.4004
12883PP      PP22987   0.803  12.506   0.657  0.2038  0.0238 -0.1493
12884PP      PP22988  15.629   0.732   3.142 -0.1248 -0.2623 -0.2273
12885PP      PP22989   3.600   6.819  10.002  0.1388 -0.1167 -0.2772
12886PP      PP22990  15.881  10.767   2.573  0.1577  0.3431  0.2635
12887PP      PP22991   2.705   4.976   3.469  0.0291  0.3771  0.1400
12888PP      PP22992  13.729  14.928   9.836  0.1632  0.1500 -0.2182
12889PP      PP22993   2.431   5.689   2.879 -0.3236 -0.0987  0.2241
12890PP      PP22994   1.000   7.637   4.435 -0.1439  0.1759  0.0045
12891PP      PP22995  14.204  13.799   1.669  0.3770 -0.1637 -0.0152
12892PP      PP22996   3.962   8.023   4.825 -0.0085 -0.2251 -0.0501
12893PP      PP22997  14.624  11.544  10.237  0.0646  0.1252  0.3198
12894PP      PP22998  11.487  10.439   2.930  0.1429  0.0659  0.1746
12895PP      PP22999   9.332   3.073  12.990 -0.0910  0.1970 -0.1467
12896PP      PP23000   5.811   7.612   0.277 -0.1624  0.0985  0.0757
12897PP      PP23001  13.660  13.801  10.185  0.0002  0.0167 -0.0756
12898PP      PP23002   7.997   2.196  13.199  0.0248 -0.2821 -0.1453
12899PP      PP23003  10.039  10.950   2.686 -0.0156  0.2540 -0.0704
12900PP      PP23004   6.160  14.745   5.070 -0.0781 -0.3348 -0.2337
12901PP      PP23005   3.810   1.798  11.974  0.1616  0.3466 -0.0123
12902PP      PP23006  11.792   0.033   0.963 -0.1176  0.4692  0.2972
12903PP      PP23007   8.334   2.681   8.539 -0.0119  0.0429 -0.3494
12904PP      PP23008  12.353   9.344  11.902  0.0886  0.1389 -0.1029
12905PP      PP23009  12.503  11.587   1.582 -0.0677 -0.0310  0.1087
12906PP      PP23010   1.199   7.348  10.644  0.1805 -0.1399  0.1294
12907PP      PP23011   9.995  15.083   9.199  0.2191  0.0533  0.0367
12908PP      PP23012   5.984   3.112  12.829 -0.3225 -0.0500  0.1468
12909PP      PP23013  14.618   2.448  12.760 -0.1090  0.1278  0.0346
12910PP      PP23014   7.567   7.177   4.419 -0.0550  0.0594  0.2208
12911PP      PP23015   7.987  13.861   4.052  0.3206 -0.2528  0.0335
12912PP      PP23016  15.252   5.175  10.159 -0.2507 -0.0626 -0.2649
12913PP      PP23017  13.767   9.719   0.201 -0.0960  0.4536  0.1216
12914PP      PP23018   0.746  14.105   2.936 -0.0264 -0.0244 -0.2369
12915PP      PP23019  11.684  14.866   1.390 -0.0858 -0.1702  0.1278
12916PP      PP23020   0.246  15.774   0.827 -0.2148 -0.0131  0.1040
12917PP      PP23021   4.381  12.424   8.843 -0.2921 -0.0926  0.0694
12918PP      PP23022   8.091   8.454   3.001 -0.2061 -0.2816 -0.1437
12919PP      PP23023  11.220   1.154  11.689 -0.0327  0.1420 -0.1269
12920PP      PP23024   9.868   2.117   0.359 -0.0317 -0.0043  0.0838
12921PP      PP23025  15.747  13.137   2.433 -0.0233 -0.2190 -0.0437
12922PP      PP23026   7.034   6.158  13.089  0.0389  0.1837  0.0516
12923PP      PP23027  10.140  11.530   9.680  0.1494  0.0539  0.0274
12924PP      PP23028  14.735   2.914   2.127 -0.2327  0.4382 -0.0265
12925PP      PP23029   0.058   8.574   0.705 -0.0746 -0.3466 -0.1369
12926PP      PP23030  14.758  14.343   3.335 -0.0466 -0.1202  0.0092
12927PP      PP23031  10.478   9.359  12.961 -0.1640  0.1773  0.0212
12928PP      PP23032  13.010  14.663  13.125 -0.0762 -0.4813  0.1879
12929PP      PP23033   1.113  11.560  10.758  0.1713  0.0789 -0.1403
12930PP      PP23034  11.321   6.901  10.475 -0.0129  0.3187 -0.0609
12931PP      PP23035  13.190   5.219   2.911  0.1036 -0.0524  0.1350
12932PP      PP23036  11.091  11.784   7.575 -0.0110 -0.4002 -0.1036
12933PP      PP23037   5.796   2.705   9.912 -0.1887  0.1302  0.2567
12934PP      PP23038   4.014   2.394  10.227  0.0706 -0.0261 -0.0729
12935PP      PP23039   3.089  10.001   3.531 -0.1157 -0.0523  0.2136
12936PP      PP23040  11.079  10.670  11.022 -0.0202  0.2440  0.3411
12937PP      PP23041   1.967   7.404   4.726 -0.1330  0.2749 -0.0148
12938PP      PP23042  15.104   7.667   0.954 -0.0824 -0.1260  0.2536
12939PP      PP23043   4.687  13.561  11.370  0.0019  0.1860  0.2156
12940PP      PP23044  11.427  15.366  11.431 -0.0113 -0.1604  0.2703
12941PP      PP23045   4.862  10.026  10.132  0.0357 -0.3411 -0.2490
12942PP      PP23046  12.554  15.088   3.643 -0.0762  0.0120 -0.0783
12943PP      PP23047  15.704   3.322  11.041 -0.1463 -0.1587  0.0952
12944PP      PP23048   2.143  15.769   1.041 -0.2503  0.2354 -0.0104
12945PP      PP23049  11.978  13.207  11.873 -0.1952 -0.0562  0.1844
12946PP      PP23050  11.192   4.522   4.035  0.0246  0.3126  0.1227
12947PP      PP23051   6.919  12.287   4.407  0.1832 -0.2531 -0.0786
12948PP      PP23052  11.721   1.088  12.143  0.0169 -0.1831  0.0461
12949PP      PP23053   6.220   9.789   2.646 -0.2355  0.0250 -0.5321
12950PP      PP23054   8.613  11.162   4.526 -0.0305  0.2808 -0.1461
12951PP      PP23055   5.391   2.170  11.352  0.1398 -0.0456  0.1896
12952PP      PP23056   4.448   9.204   3.260  0.1725  0.1191  0.0709
12953PP      PP23057   7.229  14.518  11.437 -0.1202 -0.3068  0.1622
12954PP      PP23058   0.802   3.514  11.550  0.0696  0.3906 -0.3806
12955PP      PP23059   0.974   8.832   2.493  0.1233 -0.0411 -0.0128
12956PP      PP23060   2.588   6.164   2.918 -0.1037  0.2387  0.0033
12957PP      PP23061   3.928   2.008  10.925  0.0240 -0.3477 -0.1247
12958PP      PP23062   6.764   0.564  12.066 -0.1554  0.0090 -0.4820
12959PP      PP23063   9.058   7.042   9.817  0.1089 -0.0556 -0.3970
12960PP      PP23064  11.011   0.079   9.938  0.2087 -0.2615  0.0629
12961PP      PP23065   6.896   9.003   2.676  0.1490  0.1500 -0.0959
12962PP      PP23066  10.806  12.103   9.971 -0.2353 -0.0936  0.2741
12963PP      PP23067   1.064  14.769   9.480  0.0460 -0.2423  0.0592
12964PP      PP23068   1.945  11.692   3.825  0.1329 -0.4708 -0.1363
12965PP      PP23069  10.801   0.683   1.860 -0.1418 -0.0774  0.0582
12966PP      PP23070   5.631   6.387   0.703 -0.0932  0.0004 -0.0186
12967PP      PP23071   4.234   7.106   3.253  0.0697 -0.0517  0.0199
12968PP      PP23072  10.658  10.239  10.992  0.1397  0.1104  0.1435
12969PP      PP23073   0.238   1.664   3.408 -0.4658 -0.1889 -0.0910
12970PP      PP23074   4.255   8.756  11.757 -0.0775 -0.2062  0.1126
12971PP      PP23075   1.043  11.046   3.552 -0.0398  0.1028  0.0879
12972PP      PP23076   9.164   9.103  11.775  0.2856  0.0501  0.1410
12973PP      PP23077   5.438  12.686   3.707 -0.0787 -0.1425  0.1572
12974PP      PP23078   1.637   4.322  13.198 -0.1011 -0.0315  0.1764
12975PP      PP23079  12.729  14.792   9.286  0.1695  0.0502  0.0455
12976PP      PP23080   0.406   3.307   2.130 -0.2869 -0.0738  0.1241
12977PP      PP23081   5.139   2.600  11.588 -0.1745 -0.0047 -0.4397
12978PP      PP23082   0.321  10.295  11.901 -0.1150 -0.2627 -0.1297
12979PP      PP23083  10.391   8.894  12.771  0.0304 -0.0597  0.3214
12980PP      PP23084  10.151   3.455   0.927 -0.0283  0.2196 -0.1491
12981PP      PP23085  12.575   9.133  10.780  0.0748  0.3787 -0.1050
12982PP      PP23086  10.936  11.375  12.049 -0.1380  0.4514 -0.1925
12983PP      PP23087   9.887  13.756   0.945 -0.1720  0.2729 -0.3336
12984PP      PP23088   6.312   4.931   8.897 -0.1618  0.2331 -0.0465
12985PP      PP23089   7.435   3.842  10.533 -0.1901  0.0796 -0.0891
12986PP      PP23090   3.558   7.582   0.364  0.0341  0.1850 -0.0135
12987PP      PP23091   1.724   7.900   5.038  0.0541  0.0525  0.0782
12988PP      PP23092   3.016  15.290   9.474  0.3669 -0.3759  0.0142
12989PP      PP23093   9.969  15.849   3.397  0.2125 -0.0672 -0.1679
12990PP      PP23094   4.126  12.179   2.214 -0.2708  0.3096  0.0467
12991PP      PP23095   5.573  10.574   9.630 -0.1224  0.0658 -0.5849
12992PP      PP23096   9.888   7.687   9.110 -0.0899 -0.1574 -0.1461
12993PP      PP23097  11.636   7.865   3.365  0.4055 -0.2304 -0.2183
12994PP      PP23098  10.685  14.554   8.676  0.0089 -0.0418 -0.1808
12995PP      PP23099  14.270  11.142   2.493  0.0083 -0.2522  0.1419
12996PP      PP23100   6.178   7.605   1.245 -0.2020 -0.1219 -0.2763
12997PP      PP23101  12.888   0.403  11.008  0.1274  0.1371  0.1148
12998PP      PP23102  10.220   6.476   2.654 -0.1492 -0.2346  0.1693
12999PP      PP23103   3.494  14.478   3.686 -0.2186  0.0956  0.0679
13000PP      PP23104  11.616  10.437  12.157 -0.2742  0.3899 -0.1063
13001PP      PP23105   7.556   6.977   4.857 -0.2174 -0.1442  0.2632
13002PP      PP23106   4.764  13.894   8.959 -0.0474  0.1085 -0.2212
13003PP      PP23107  15.198  10.665  11.047 -0.3068 -0.2316  0.2532
13004PP      PP23108  10.201   9.342   0.072  0.2359 -0.0125 -0.0565
13005PP      PP23109  12.791  10.929  11.130 -0.1032 -0.1657 -0.3063
13006PP      PP23110   9.252   3.122   2.781 -0.1182 -0.2286 -0.1809
13007PP      PP23111   8.043  11.985   0.899  0.0892 -0.2144 -0.0761
13008PP      PP23112  15.386   8.289  11.610 -0.2454 -0.0389  0.1356
13009PP      PP23113   8.864   9.199   3.904 -0.2580 -0.2782  0.0247
13010PP      PP23114   9.075  11.552   4.469 -0.2517 -0.0712 -0.1208
13011PP      PP23115  11.742   0.036   2.716  0.2904  0.0021 -0.0443
13012PP      PP23116   9.284   4.179   3.127  0.0196 -0.1301  0.1126
13013PP      PP23117   5.459   7.140   9.969 -0.0083  0.5281 -0.1299
13014PP      PP23118  13.078   1.535  11.197  0.1429  0.0950  0.0739
13015PP      PP23119   8.436  11.017   9.694 -0.1888 -0.0396  0.2177
13016PP      PP23120  12.663   5.262   9.554  0.1812  0.1805 -0.3600
13017PP      PP23121  15.878   3.747  13.248 -0.2344  0.1378  0.2155
13018PP      PP23122   9.781  11.133   0.087  0.0437 -0.0144  0.1667
13019PP      PP23123   9.488  13.701   9.046 -0.0978 -0.2134 -0.0426
13020PP      PP23124   9.762  11.084   4.224  0.2625  0.4862 -0.1197
13021PP      PP23125  12.909   8.322  11.260 -0.0739 -0.3160  0.1371
13022PP      PP23126  12.383   5.516  11.131  0.3855 -0.1483 -0.2214
13023PP      PP23127  11.348   0.098  10.288 -0.1869 -0.3273 -0.1675
13024PP      PP23128   9.311   9.391   3.809 -0.3636 -0.3793 -0.1851
13025PP      PP23129  15.852  11.986   1.994 -0.0871 -0.2873  0.1516
13026PP      PP23130  12.622   1.853  13.296 -0.2846 -0.3412  0.0954
13027PP      PP23131   2.202   4.224   9.325  0.1784 -0.1522 -0.2009
13028PP      PP23132   3.724   0.685   1.621 -0.1848 -0.0981  0.3028
13029PP      PP23133  15.581   2.823   4.085 -0.1455 -0.1462 -0.1972
13030PP      PP23134  12.959  15.159   8.866 -0.1359 -0.1684  0.1466
13031PP      PP23135  12.553  13.728   1.056 -0.1001  0.3063  0.1944
13032PP      PP23136  12.015   7.374  11.749  0.0749  0.0106  0.0445
13033PP      PP23137   0.433   6.457  12.280 -0.0364 -0.0300  0.1575
13034PP      PP23138   8.849   6.239  12.996  0.1840 -0.0834 -0.1974
13035PP      PP23139  15.267   5.517  12.083  0.1909  0.3699 -0.0446
13036PP      PP23140  14.403  13.926  13.146 -0.0663  0.0484 -0.1240
13037PP      PP23141   0.826   6.072   9.926  0.2522 -0.0113 -0.1693
13038PP      PP23142  12.046  12.885   1.074 -0.1525 -0.2237  0.2814
13039PP      PP23143   6.510   4.850  12.863 -0.0840 -0.1982  0.2238
13040PP      PP23144  12.205   6.951   0.184  0.0886 -0.1963  0.1607
13041PP      PP23145   5.290  14.131   1.428  0.1319  0.0193  0.2962
13042PP      PP23146  12.653  14.596  10.829  0.0478 -0.2697 -0.1892
13043PP      PP23147   0.029  10.056  10.879 -0.3231  0.0245  0.1760
13044PP      PP23148   4.876  12.123  11.697 -0.0251  0.0064 -0.1599
13045PP      PP23149   4.061   3.346   3.892 -0.0456 -0.3709  0.0031
13046PP      PP23150   6.041  12.373  11.392  0.0537  0.0548 -0.3720
13047PP      PP23151   0.907   4.711   0.835 -0.0131 -0.0884 -0.3088
13048PP      PP23152   2.732   9.802   9.223 -0.3892  0.0923  0.0063
13049PP      PP23153  10.170   7.177   9.065 -0.1997 -0.0623  0.1658
13050PP      PP23154   8.870   2.305   1.722  0.1113 -0.0701  0.1717
13051PP      PP23155   7.189  14.407  10.201 -0.2155  0.1411 -0.2008
13052PP      PP23156   8.328  15.158   3.836 -0.0751 -0.0003  0.0924
13053PP      PP23157  13.484  11.137   3.657  0.1182 -0.0707  0.1565
13054PP      PP23158   4.916   8.980  12.920 -0.1966 -0.0174 -0.2010
13055PP      PP23159   4.329  15.227   3.618 -0.1155  0.0652  0.1822
13056PP      PP23160   3.524  11.601   9.526  0.0551 -0.0007  0.0554
13057PP      PP23161  14.192   6.551   3.892 -0.0128  0.1062  0.0436
13058PP      PP23162  15.052   6.583   2.451 -0.1649  0.0366  0.2277
13059PP      PP23163   0.183  13.550  10.433  0.0333  0.2047  0.0871
13060PP      PP23164   9.140   9.084  10.378  0.2698  0.1800  0.2008
13061PP      PP23165   4.953  15.218   2.111  0.1119 -0.0836  0.1079
13062PP      PP23166  11.272   6.411   2.142  0.0210  0.2141  0.3538
13063PP      PP23167   6.351   6.961  12.763 -0.0925 -0.0873 -0.0123
13064PP      PP23168   5.629   6.229   4.471  0.4810 -0.2293 -0.0496
13065PP      PP23169   6.010   3.649  12.003  0.1736  0.2288  0.2882
13066PP      PP23170   6.379  12.079  12.000  0.2487 -0.2759  0.0231
13067PP      PP23171   1.389   7.338   1.942 -0.0311  0.2174 -0.2330
13068PP      PP23172   7.640   8.447  12.266 -0.0969 -0.4919 -0.2929
13069PP      PP23173   1.886  14.929   0.423  0.0814  0.0389  0.1402
13070PP      PP23174   2.271   9.457  12.008  0.6175 -0.0212 -0.0954
13071PP      PP23175  12.121   7.106  10.045  0.0277 -0.3375 -0.1486
13072PP      PP23176  14.229  12.191  10.970  0.0021  0.2187  0.1231
13073PP      PP23177   7.845   7.405   3.380 -0.0471  0.0155 -0.1457
13074PP      PP23178  12.254  12.887  10.114  0.1351 -0.4167 -0.2184
13075PP      PP23179   1.484  13.943   2.513  0.2714  0.0797 -0.0428
13076PP      PP23180  12.016  10.748   9.103 -0.0500 -0.0435 -0.0370
13077PP      PP23181   6.582  14.579  11.718  0.1583 -0.1971  0.0719
13078PP      PP23182  10.299  15.197   0.479 -0.0282  0.0277  0.2587
13079PP      PP23183  13.974  14.035  11.197  0.1087 -0.0062 -0.0015
13080PP      PP23184   6.892   5.936   0.131 -0.5020  0.0704 -0.0527
13081PP      PP23185  10.044   5.745  12.158  0.2338 -0.0125  0.1196
13082PP      PP23186   0.541   9.395   0.264  0.2860  0.1614 -0.1829
13083PP      PP23187   4.113   6.677  11.981 -0.2912 -0.1257 -0.1303
13084PP      PP23188   5.720  11.764   5.247 -0.1282  0.0764  0.1977
13085PP      PP23189  12.996   0.685  12.535 -0.1448 -0.2640 -0.1223
13086PP      PP23190  15.430   9.689   4.075  0.1256  0.1840 -0.4671
13087PP      PP23191   0.332  11.039  11.833 -0.1674 -0.2070 -0.0065
13088PP      PP23192   5.507  12.213   3.976  0.1157  0.1676 -0.0538
13089PP      PP23193   3.000  12.837   4.084  0.1130 -0.2136 -0.0173
13090PP      PP23194   9.674   1.778   0.952 -0.2149 -0.3173  0.0460
13091PP      PP23195   7.297   3.757   0.408  0.1525  0.1407 -0.0169
13092PP      PP23196   7.298  12.669  10.907 -0.1883  0.2396  0.1165
13093PP      PP23197  11.275   6.115   0.685 -0.2991  0.1144 -0.0789
13094PP      PP23198   5.948  12.237   4.151 -0.2034  0.2121 -0.0533
13095PP      PP23199  12.404   2.267   9.013  0.1892 -0.0586  0.2091
13096PP      PP23200   2.511   2.270   3.599 -0.0284 -0.1260  0.1273
13097PP      PP23201  11.313  13.923   0.031  0.0566  0.0485  0.0139
13098PP      PP23202   1.798   1.403   2.032 -0.2440 -0.0339  0.2871
13099PP      PP23203   0.348  12.371  11.595  0.0723 -0.2093  0.1548
13100PP      PP23204  12.067  14.189  12.332  0.0645  0.0927  0.1147
13101PP      PP23205   7.718  15.123  10.266  0.1346  0.3422 -0.2069
13102PP      PP23206   3.746   5.876   0.939 -0.0652  0.1901 -0.0292
13103PP      PP23207   6.742   6.916   0.131 -0.4981  0.2183  0.1147
13104PP      PP23208  12.862  10.617   0.755 -0.1756 -0.0380  0.1281
13105PP      PP23209  14.401  10.850  11.521  0.1103 -0.0971 -0.0977
13106PP      PP23210   7.656   2.409   3.753 -0.0816  0.0701  0.1871
13107PP      PP23211  12.317  13.741   8.353  0.3229 -0.2459  0.3138
13108PP      PP23212   3.118  13.113   3.374  0.0961 -0.0486 -0.2526
13109PP      PP23213   2.827  15.265   2.303 -0.3184  0.2583  0.2040
13110PP      PP23214   2.833   4.901   0.146 -0.0236  0.2336 -0.2113
13111PP      PP23215   6.495  13.397   0.946 -0.1455  0.2403  0.3712
13112PP      PP23216   9.744   2.813   0.992  0.2116 -0.0046 -0.4762
13113PP      PP23217  12.558   3.687  11.396  0.1199 -0.3576  0.0535
13114PP      PP23218  13.066   1.581  12.527 -0.0983  0.0523  0.0696
13115PP      PP23219   7.720   9.762   2.919  0.2825  0.0712 -0.1712
13116PP      PP23220   8.528   8.253   2.775 -0.0154 -0.1166 -0.4125
13117PP      PP23221  15.268   0.273   0.699  0.1121 -0.0318 -0.2784
13118PP      PP23222  13.305   1.033   3.220  0.1648 -0.1069  0.1072
13119PP      PP23223  11.177   2.799   4.783  0.0825  0.0597 -0.1324
13120PP      PP23224   8.930   0.528  12.533 -0.1771  0.0474 -0.3145
13121PP      PP23225   7.730  12.432   2.608 -0.3320 -0.1865 -0.2138
13122PP      PP23226   1.640  14.600   0.820 -0.0715  0.1354 -0.0273
13123PP      PP23227   0.081  13.340   1.433  0.3636  0.1882  0.1624
13124PP      PP23228   0.174   1.678   2.745  0.1097 -0.2079  0.0757
13125PP      PP23229  12.906  10.330   3.519 -0.2674 -0.0473 -0.1222
13126PP      PP23230   4.174   1.023   1.740  0.0132  0.0761 -0.0747
13127PP      PP23231  15.558   7.165  12.433  0.0706 -0.1654 -0.2815
13128PP      PP23232   5.325   5.940   3.653 -0.2998 -0.0309  0.2214
13129PP      PP23233   1.775  12.572   2.504 -0.2307  0.1829 -0.2436
13130PP      PP23234   9.245   6.302   0.053  0.1031  0.1356  0.2307
13131PP      PP23235   5.480   1.004   3.176  0.1267  0.3029 -0.1682
13132PP      PP23236   8.131  10.636   1.404  0.0159  0.3604 -0.0297
13133PP      PP23237   4.791  12.741   2.717 -0.0897  0.2666 -0.4609
13134PP      PP23238  11.975   9.432  13.389  0.3083 -0.1413  0.0914
13135PP      PP23239   1.045   7.953   9.545 -0.0494 -0.0519 -0.2591
13136PP      PP23240   3.998   3.524   2.455  0.0012  0.1941 -0.0902
13137PP      PP23241   9.662  14.750   3.462  0.3400 -0.1082  0.0371
13138PP      PP23242   9.043   4.422   8.787  0.2143  0.0093 -0.2649
13139PP      PP23243   2.785   9.390   0.592  0.1204  0.0584  0.1230
13140PP      PP23244   9.928   9.344   1.132  0.1497  0.0539 -0.0456
13141PP      PP23245  11.718   5.178  10.532 -0.1272  0.0063 -0.0202
13142PP      PP23246   3.916   5.180  12.291  0.0286  0.0016  0.2509
13143PP      PP23247   8.079   5.364  10.419  0.0471 -0.2207 -0.0957
13144PP      PP23248   0.811   8.469   0.693 -0.0497 -0.1124  0.1606
13145PP      PP23249  11.600   0.382  11.396 -0.2211 -0.0102 -0.0974
13146PP      PP23250  15.762  14.342   2.008 -0.1037  0.0469  0.0794
13147PP      PP23251  10.814   5.466  12.600 -0.4560 -0.0473 -0.1896
13148PP      PP23252  15.248  11.997   1.346 -0.0549 -0.1697  0.1477
13149PP      PP23253  11.756  15.753  11.501  0.0535 -0.1197 -0.1687
13150PP      PP23254  14.412   0.942   0.165 -0.0081 -0.2640 -0.3778
13151PP      PP23255  11.913  11.339   9.692 -0.0847  0.3065 -0.1932
13152PP      PP23256   7.929   7.422   4.929  0.0840  0.2738  0.0972
13153PP      PP23257   3.636   8.486  10.892  0.0354 -0.0200 -0.1583
13154PP      PP23258   5.931  15.605   3.041 -0.0577  0.0539  0.2334
13155PP      PP23259   7.204   3.779  11.299  0.2127 -0.1350  0.1745
13156PP      PP23260   6.023  10.147   2.162 -0.2155 -0.1477  0.3194
13157PP      PP23261   2.988  11.822   9.482 -0.0105 -0.1199 -0.1677
13158PP      PP23262   7.887  12.623   9.984  0.0409  0.5661 -0.2359
13159PP      PP23263   6.013   0.986   2.224  0.0111  0.0452 -0.1991
13160PP      PP23264   4.776  14.763  12.862  0.0260  0.3544 -0.0192
13161PP      PP23265  14.317   4.549   1.948 -0.4293 -0.4234  0.0843
13162PP      PP23266  13.534  15.272   0.816  0.1073  0.1332  0.0288
13163PP      PP23267   4.951  12.119   0.790  0.0916  0.0679  0.5647
13164PP      PP23268   5.279   7.627   2.697  0.0743 -0.3941 -0.0582
13165PP      PP23269   1.086  13.000   2.174  0.2366 -0.1011  0.0924
13166PP      PP23270   6.231  12.825  13.051 -0.2359  0.1733  0.2294
13167PP      PP23271   1.380  14.573  13.080  0.1730  0.0210  0.0477
13168PP      PP23272  15.746   6.402   0.104  0.2407 -0.0542  0.0680
13169PP      PP23273  12.371   4.467   1.935 -0.3728 -0.0265 -0.1435
13170PP      PP23274   9.470   3.608  13.213 -0.1643 -0.1115  0.1284
13171PP      PP23275   4.033  10.028  12.704  0.0978  0.0956  0.1147
13172PP      PP23276   2.027  12.383  12.087 -0.1564  0.0631 -0.3499
13173PP      PP23277   0.766   5.828  10.974  0.1322  0.0743 -0.0291
13174PP      PP23278  14.862   1.744   1.343  0.3141  0.3043 -0.0690
13175PP      PP23279   9.358  10.563   1.433 -0.0744  0.1010  0.4123
13176PP      PP23280   5.268   0.040   9.193 -0.3674 -0.2473  0.0166
13177PP      PP23281  10.939   4.578   1.586  0.2126  0.1483  0.0108
13178PP      PP23282   0.366   7.978  11.351  0.0109 -0.1122 -0.0981
13179PP      PP23283   7.686   8.886  10.519  0.0561 -0.1902 -0.2880
13180PP      PP23284   6.923  10.036  12.200  0.1296 -0.1843  0.3766
13181PP      PP23285  10.367  10.257   2.022  0.2514 -0.2714  0.0503
13182PP      PP23286   7.030   4.738   1.349  0.0226  0.0206 -0.0277
13183PP      PP23287   9.250   6.618   2.714  0.3021  0.1413 -0.0658
13184PP      PP23288   0.355  14.413   2.276 -0.0159 -0.3319  0.1543
13185PP      PP23289   6.498   5.622  10.107  0.0095  0.2856  0.2294
13186PP      PP23290  14.024  10.963   3.416 -0.1337 -0.0780 -0.0888
13187PP      PP23291  15.657  12.817   1.714  0.0732  0.0995 -0.0084
13188PP      PP23292   8.074   9.985  11.599 -0.0135 -0.2857 -0.4626
13189PP      PP23293   8.927   0.061  12.406  0.2015  0.0980  0.0624
13190PP      PP23294  15.133   7.630   2.211  0.0055 -0.0980  0.1704
13191PP      PP23295   8.857   1.843   1.487 -0.0518  0.1792 -0.1592
13192PP      PP23296   2.892   6.934   9.809 -0.2243 -0.3699  0.2166
13193PP      PP23297   8.408   3.581   1.464  0.0383 -0.1414  0.1673
13194PP      PP23298   0.146   4.204   0.106  0.0504 -0.1850  0.2737
13195PP      PP23299  10.905   0.036   1.194 -0.3476  0.1033 -0.1555
13196PP      PP23300  13.996  13.335   2.457 -0.0478 -0.2765 -0.0411
13197PP      PP23301   2.513  12.737  11.590 -0.3100 -0.1832  0.0870
13198PP      PP23302   2.028   0.524   2.295 -0.0466 -0.0561  0.0877
13199PP      PP23303   6.268   6.439   9.993 -0.0919 -0.0143  0.0677
13200PP      PP23304   7.803   6.372   1.595 -0.2425 -0.2540  0.1162
13201PP      PP23305  10.467  11.479   2.558  0.1395  0.0533  0.0621
13202PP      PP23306   9.560  15.651   1.983 -0.1170 -0.0405  0.2837
13203PP      PP23307   2.829  11.513   2.111 -0.3043  0.0188 -0.2753
13204PP      PP23308   8.183  15.807   1.841 -0.0653  0.2403  0.0986
13205PP      PP23309  14.013  13.264  10.545  0.2370  0.0025 -0.1589
13206PP      PP23310   3.640   5.623   9.625  0.1732 -0.1702 -0.1350
13207PP      PP23311   7.186   5.505   3.807  0.3025 -0.0465  0.1176
13208PP      PP23312   6.379  13.297   3.199 -0.1512 -0.0336  0.2140
13209PP      PP23313   1.866   2.996  10.599  0.4085  0.1012 -0.0934
13210PP      PP23314   1.565   0.977  10.097  0.1424  0.1170  0.0651
13211PP      PP23315   5.969   5.557  12.833 -0.0313 -0.1368  0.2681
13212PP      PP23316   6.415   2.198  12.945 -0.0270  0.0685  0.2866
13213PP      PP23317  11.438   0.314   3.056 -0.0092  0.2976  0.0658
13214PP      PP23318   8.718   2.508   3.955 -0.1599  0.2562  0.2397
13215PP      PP23319  10.578   2.586  12.695  0.0049 -0.2193  0.0849
13216PP      PP23320  12.194   6.934   4.705  0.0998  0.1361  0.1344
13217PP      PP23321  13.020  14.398   9.981  0.2403  0.0406 -0.4802
13218PP      PP23322   0.425   8.470  12.989 -0.0018 -0.0217  0.1851
13219PP      PP23323   4.523  10.158   4.429  0.1444  0.1004  0.1004
13220PP      PP23324  14.260   9.677   0.565 -0.0999 -0.3187  0.3584
13221PP      PP23325  14.265  14.282   3.227 -0.0725 -0.2456  0.0060
13222PP      PP23326  12.841   9.704   4.094 -0.0317 -0.1696  0.2191
13223PP      PP23327   1.901   6.485   4.732  0.2228  0.2544 -0.0490
13224PP      PP23328   4.817  10.569   4.877 -0.0901  0.0677 -0.1074
13225PP      PP23329  10.067  11.829   0.380 -0.0991  0.0826  0.1494
13226PP      PP23330   4.336   7.984   3.741 -0.0004 -0.0233  0.0222
13227PP      PP23331   2.334   3.704  11.031 -0.0189 -0.0715 -0.1186
13228PP      PP23332   4.023  10.489   0.542  0.0156 -0.0545 -0.1928
13229PP      PP23333  12.886   4.820   0.407  0.0081  0.1648  0.0836
13230PP      PP23334   8.785   4.537  12.287 -0.3710 -0.0523 -0.1248
13231PP      PP23335  12.421   8.516   1.314  0.0075 -0.0146 -0.0936
13232PP      PP23336   9.770   8.229   0.183  0.0650  0.2970 -0.0331
13233PP      PP23337   4.693   6.991   3.572 -0.2817  0.0653  0.0161
13234PP      PP23338  12.163   0.848  12.600  0.2852  0.1967 -0.1443
13235PP      PP23339   5.733   6.854  13.338  0.1679 -0.1513 -0.0033
13236PP      PP23340   0.841  10.968  12.594  0.2074 -0.1499 -0.1115
13237PP      PP23341  10.862   1.880  12.996 -0.3070 -0.2279  0.4000
13238PP      PP23342  10.001  15.629  11.548  0.1066 -0.3212 -0.0324
13239PP      PP23343   3.498   3.799  10.317  0.2457 -0.1568 -0.1093
13240PP      PP23344   5.183   8.118   4.430 -0.0452 -0.2925 -0.0424
13241PP      PP23345   5.170   9.146  12.146  0.1244  0.2918  0.2418
13242PP      PP23346   0.768   0.998   3.498 -0.1761  0.2300  0.1129
13243PP      PP23347  14.535   8.570   5.294 -0.0220  0.0968  0.1156
13244PP      PP23348  13.303  11.978   0.477  0.0739 -0.3611  0.0373
13245PP      PP23349  15.321   1.183   4.919  0.3430 -0.2058  0.1994
13246PP      PP23350   2.859   6.546   1.529 -0.3560  0.0723  0.0645
13247PP      PP23351   0.615   0.400   9.701  0.1507  0.1522  0.1340
13248PP      PP23352   1.593   6.018  11.460 -0.0001  0.0062  0.1195
13249PP      PP23353   0.945   8.631   5.468 -0.1241 -0.1066  0.2410
13250PP      PP23354  15.496   7.902   1.884 -0.1585 -0.0590 -0.3374
13251PP      PP23355  10.535  11.920  10.388 -0.2671  0.2785  0.1594
13252PP      PP23356  14.663  11.161  11.270  0.0657 -0.3625 -0.0669
13253PP      PP23357  12.172   2.144   9.495  0.2069  0.0146  0.3725
13254PP      PP23358  15.340   1.214   1.928  0.1576  0.0908 -0.1757
13255PP      PP23359   5.784   0.139  10.361  0.0319  0.0620 -0.2891
13256PP      PP23360   6.366   0.337   1.688  0.2821  0.1016 -0.1143
13257PP      PP23361   1.561  11.624  11.451 -0.1646  0.0759  0.0242
13258PP      PP23362   2.892   0.532  10.328  0.1055  0.0658 -0.2089
13259PP      PP23363   0.424   3.660   9.169 -0.0265 -0.0228  0.1208
13260PP      PP23364   3.527   5.643   4.437 -0.0936 -0.0622 -0.1177
13261PP      PP23365   3.408  15.637  10.403  0.1973  0.0028  0.1027
13262PP      PP23366  11.508  15.153   2.385  0.2008  0.1691 -0.2247
13263PP      PP23367   9.105   8.611   8.952  0.1051 -0.1468 -0.1788
13264PP      PP23368  10.964  13.473   1.875 -0.1549  0.1196  0.5603
13265PP      PP23369   4.715  12.271   2.858 -0.1627  0.1749  0.1854
13266PP      PP23370   6.612   4.493   1.290  0.1181  0.2116  0.0077
13267PP      PP23371  13.520   8.516   0.534  0.1156 -0.1392  0.2203
13268PP      PP23372   2.773   4.740   4.389  0.0808 -0.0412  0.0830
13269PP      PP23373   9.102   0.954  12.167  0.0514 -0.1669 -0.0850
13270PP      PP23374   0.033   0.234  11.293  0.1874  0.1513  0.2522
13271PP      PP23375  11.528   5.613   1.225  0.4775 -0.1561  0.2042
13272PP      PP23376  12.747   3.979   3.708  0.0875  0.1138  0.1010
13273PP      PP23377   3.124   7.597  13.105  0.2842 -0.2913 -0.2831
13274PP      PP23378  14.678  10.530   1.170  0.1868  0.2807  0.0861
13275PP      PP23379  10.479   0.810   9.045 -0.0613  0.0859  0.4757
13276PP      PP23380  10.467   2.651   2.141  0.1050 -0.0745  0.4000
13277PP      PP23381   4.997  11.231  10.566 -0.2583  0.1315 -0.1914
13278PP      PP23382   0.421  13.465   1.819 -0.0020 -0.1548 -0.1304
13279PP      PP23383   0.411  13.276   0.885  0.1796  0.2577 -0.2105
13280PP      PP23384   6.220  12.576   1.695 -0.1478  0.1055 -0.1927
13281PP      PP23385   4.410  12.265  11.639 -0.3539  0.0882  0.1169
13282PP      PP23386  13.030   6.686  10.923 -0.0953 -0.1173  0.1201
13283PP      PP23387   6.358   3.297  11.774  0.0976  0.0039 -0.0926
13284PP      PP23388   0.395   8.821   4.037 -0.1069 -0.0174 -0.1987
13285PP      PP23389   7.839   3.647   0.363  0.1783  0.1099 -0.2002
13286PP      PP23390   5.530   8.102   2.091 -0.1354 -0.0913  0.1691
13287PP      PP23391   5.181   1.935   1.453  0.1585  0.0405  0.2204
13288PP      PP23392   3.004  11.902   1.831  0.1763  0.0370  0.0768
13289PP      PP23393   7.673   1.207  10.502 -0.2392  0.0116 -0.0316
13290PP      PP23394  14.516  14.416  10.011 -0.3273  0.0665 -0.0724
13291PP      PP23395   0.866   9.108   3.162 -0.2838 -0.2309  0.0046
13292PP      PP23396   4.230   3.547   9.198  0.2884 -0.0080  0.1585
13293PP      PP23397   1.105   5.082   9.560  0.0077  0.0062 -0.0994
13294PP      PP23398   8.452  12.270  11.852 -0.1693  0.4818 -0.0814
13295PP      PP23399   5.921  10.104  11.077  0.0413 -0.4511 -0.1744
13296PP      PP23400   5.566  14.378   9.903  0.1272 -0.2679 -0.0614
13297PP      PP23401  14.979   5.315   2.106 -0.0404  0.0809  0.3879
13298PP      PP23402  13.423   3.713   3.681  0.1878 -0.1749 -0.3681
13299PP      PP23403   1.235   9.358   2.841  0.0264 -0.2788 -0.2184
13300PP      PP23404   0.528   6.682  10.559 -0.0843  0.0564  0.2966
13301PP      PP23405  11.612   9.685  12.266  0.1456 -0.1286  0.3672
13302PP      PP23406   1.385   4.703   2.362  0.2544  0.1218 -0.1739
13303PP      PP23407   7.696  10.826   5.043 -0.0139  0.2385  0.2312
13304PP      PP23408   6.872  10.288   9.628  0.0370  0.2235 -0.1382
13305PP      PP23409  15.536  12.845  13.418 -0.2482 -0.3641  0.1498
13306PP      PP23410   0.449   8.923   5.133  0.0621 -0.1383 -0.0941
13307PP      PP23411  12.083   1.907   9.045 -0.0571 -0.0326 -0.0954
13308PP      PP23412   7.594   9.339   0.796  0.0998  0.2021  0.0119
13309PP      PP23413  12.907  14.256  10.548  0.2110  0.0114 -0.1942
13310PP      PP23414   9.414   4.322  11.120  0.0879  0.0105  0.0696
13311PP      PP23415   8.192  13.620  12.206 -0.0273  0.0793  0.2746
13312PP      PP23416  15.775   9.620   1.019 -0.4596  0.2832 -0.0025
13313PP      PP23417  13.919  12.089   0.481  0.1509  0.1272  0.1466
13314PP      PP23418   9.929   3.462  13.267 -0.2168  0.1235 -0.1734
13315PP      PP23419   3.864   5.996   1.920 -0.0215 -0.0300 -0.3714
13316PP      PP23420  11.159  13.465   9.523  0.0200  0.0794 -0.0767
13317PP      PP23421   6.304   8.004  12.742  0.0388  0.0386  0.1466
13318PP      PP23422   3.813   2.254   9.665 -0.1224 -0.3411 -0.2254
13319PP      PP23423   0.579   5.700  10.159 -0.1073  0.0529 -0.3085
13320PP      PP23424   4.384   6.277   1.717  0.1105 -0.3544 -0.2175
13321PP      PP23425   6.016   6.707   3.721 -0.1574 -0.0140 -0.0342
13322PP      PP23426  10.608   4.095   2.639  0.1099  0.4019 -0.2730
13323PP      PP23427   0.170   6.950   4.042 -0.1927  0.0825 -0.2963
13324PP      PP23428   5.436   0.392   8.712 -0.0844  0.0601  0.1761
13325PP      PP23429   5.086   8.762   2.457  0.1237  0.4498 -0.0672
13326PP      PP23430  13.611   6.746  10.930  0.3145 -0.0651 -0.0779
13327PP      PP23431  12.143   3.549  10.937 -0.1484  0.1750  0.2451
13328PP      PP23432   3.386  10.820   3.967  0.0124  0.0114 -0.0407
13329PP      PP23433   0.693   5.222   0.181  0.2257 -0.0308  0.1332
13330PP      PP23434   3.017   1.212   0.223  0.1241 -0.1335 -0.4077
13331PP      PP23435  11.896   4.543   1.828 -0.0809  0.2453  0.4172
13332PP      PP23436  15.050   3.847   0.344  0.1765  0.0252 -0.0028
13333PP      PP23437   4.506   2.510  10.445  0.2931 -0.0220 -0.0066
13334PP      PP23438  15.895  14.539  13.171  0.0618 -0.1004 -0.0600
13335PP      PP23439  14.472  12.135   1.955  0.0007  0.3433 -0.1923
13336PP      PP23440   0.592  10.073   0.870  0.2129 -0.1683 -0.0747
13337PP      PP23441  11.621   9.226  11.419  0.2926 -0.2357 -0.2829
13338PP      PP23442  11.167   5.586   0.650  0.0150 -0.0499  0.4563
13339PP      PP23443   9.513   2.515  11.663  0.2568 -0.0345  0.2512
13340PP      PP23444   3.992   1.330  12.238  0.2887  0.0283 -0.3073
13341PP      PP23445  14.187  11.726   1.720  0.1016 -0.0235  0.1147
13342PP      PP23446  14.237  14.942   9.879 -0.0660 -0.3287 -0.1054
13343PP      PP23447   7.507   7.649   4.728  0.2856 -0.2115 -0.0866
13344PP      PP23448   1.624   3.185   3.935 -0.0183  0.3624  0.0062
13345PP      PP23449   6.260   2.002   0.884  0.1726  0.1235  0.0808
13346PP      PP23450   0.204  10.683   3.479  0.0567  0.4635  0.2237
13347PP      PP23451  14.901   5.534   3.027  0.0691 -0.1503  0.1363
13348PP      PP23452   4.512   8.950   9.888  0.0639  0.0887 -0.1556
13349PP      PP23453  15.840  13.352   8.082 -0.3434 -0.4228 -0.1014
13350PP      PP23454   0.850  15.280   9.616  0.0658  0.1466 -0.1834
13351PP      PP23455   8.020  14.228  10.758 -0.4682 -0.0210 -0.1912
13352PP      PP23456   7.883   6.737  10.592  0.0073 -0.0920 -0.1132
13353PP      PP23457  12.370  12.728  12.535  0.3099  0.1023  0.2873
13354PP      PP23458  14.373  10.740   0.249  0.0438  0.2064  0.1704
13355PP      PP23459  10.367  11.136   0.995 -0.1247 -0.0727  0.2462
13356PP      PP23460  11.020   2.223   9.977 -0.0011  0.1057 -0.0550
13357PP      PP23461  15.580  15.672  11.248  0.1192 -0.2772 -0.0823
13358PP      PP23462   3.386   3.178   0.727 -0.2842 -0.0736 -0.1901
13359PP      PP23463  11.224   3.641  11.488 -0.1681  0.1086 -0.2878
13360PP      PP23464   1.771  13.190  12.269 -0.2511 -0.1122 -0.0359
13361PP      PP23465   4.156   0.069  11.506 -0.0228  0.0081  0.1002
13362PP      PP23466   4.124  14.542   2.597  0.2472 -0.3300  0.1387
13363PP      PP23467  15.653   4.414   1.453  0.1739  0.0509 -0.0082
13364PP      PP23468   8.594   6.640  10.691 -0.2877  0.1711 -0.3690
13365PP      PP23469   5.078   0.226   0.674 -0.2327  0.3662 -0.0274
13366PP      PP23470   6.151   4.341   2.167 -0.2809  0.1269 -0.4339
13367PP      PP23471   4.192   7.451  12.568  0.0745 -0.3554  0.1862
13368PP      PP23472  15.791  11.538   1.170 -0.1381  0.1712 -0.1099
13369PP      PP23473  13.019   6.705  13.243 -0.0198 -0.1466 -0.0214
13370PP      PP23474  15.877   4.104  11.705 -0.2673  0.1584 -0.1382
13371PP      PP23475   2.790   7.385   2.423 -0.0964  0.1312 -0.0488
13372PP      PP23476   5.184   0.049  11.010 -0.1231 -0.0234 -0.0881
13373PP      PP23477   5.595   3.251   3.850 -0.2499  0.0293  0.0790
13374PP      PP23478   9.589   9.537   8.945 -0.2888  0.0369 -0.1170
13375PP      PP23479  10.508  13.061   1.952 -0.1045  0.1856  0.2884
13376PP      PP23480   7.467   2.675   1.665 -0.0069 -0.0934  0.2224
13377PP      PP23481   4.652  15.621   3.512  0.0034 -0.2028  0.0868
13378PP      PP23482   4.612   9.857   3.920  0.1913  0.2620  0.0680
13379PP      PP23483  15.011   5.002   3.065  0.2613 -0.1254  0.3346
13380PP      PP23484  13.040  12.925   3.205 -0.1233  0.3215  0.1984
13381PP      PP23485   9.518   6.460  10.084  0.2611  0.0704  0.1003
13382PP      PP23486   4.069   8.679   2.461  0.1478  0.1095 -0.4929
13383PP      PP23487   2.733   0.835   4.013 -0.1948  0.2601  0.1050
13384PP      PP23488   5.436  15.624   3.210  0.1248  0.1013 -0.0168
13385PP      PP23489   8.621  11.844  11.719 -0.0306 -0.0512 -0.0725
13386PP      PP23490   7.495   8.621   0.303  0.0874 -0.0943 -0.2892
13387PP      PP23491  11.167   5.891   2.123 -0.2660  0.1345  0.0726
13388PP      PP23492   5.674   6.693  11.288  0.0006 -0.0566  0.1803
13389PP      PP23493   7.940  10.016  13.104  0.0348 -0.1132 -0.2521
13390PP      PP23494   7.938   2.351   0.675 -0.3065  0.0766 -0.1691
13391PP      PP23495  14.428   6.356   3.338  0.0377  0.0154 -0.0090
13392PP      PP23496   6.653  10.912   0.233  0.0660  0.0697  0.1869
13393PP      PP23497  10.835   8.999   3.086  0.0463  0.0313  0.1026
13394PP      PP23498   3.065   7.752   1.508  0.1437 -0.3815 -0.1337
13395PP      PP23499   1.432   4.048  12.145  0.4379  0.0638 -0.2389
13396PP      PP23500  14.035  13.395   1.427 -0.0655  0.0546 -0.2068
13397PP      PP23501   1.092   2.144   2.988 -0.0236  0.0526  0.1955
13398PP      PP23502   1.321   3.796   9.847 -0.0515 -0.1967  0.2827
13399PP      PP23503   6.291   2.058   9.762  0.2541  0.1627  0.0360
13400PP      PP23504  10.122   4.393   9.781  0.0903 -0.2479  0.1354
13401PP      PP23505   8.983   8.255  11.294 -0.1012  0.0255  0.0009
13402PP      PP23506  12.083   6.949   9.556  0.2466  0.2376  0.0955
13403PP      PP23507   8.858  13.101  12.909 -0.1054  0.0892 -0.1830
13404PP      PP23508   0.728   9.154   9.563  0.1157 -0.1144  0.2267
13405PP      PP23509   0.173   2.046   3.670 -0.1329 -0.4637  0.0597
13406PP      PP23510   6.403  14.831   3.295  0.0341  0.3421  0.3150
13407PP      PP23511   8.400   4.952  12.964 -0.1337  0.1299  0.0709
13408PP      PP23512   9.780   2.109   2.674  0.4266  0.4676  0.2300
13409PP      PP23513  13.201   2.215   3.589 -0.3964  0.1537  0.1771
13410PP      PP23514   6.412  10.343   0.062  0.1601 -0.0499 -0.2919
13411PP      PP23515  15.194  11.035  13.250  0.0889  0.3538  0.0716
13412PP      PP23516  14.487   0.940   1.343  0.3792 -0.1616  0.0596
13413PP      PP23517  14.008   3.913   3.463  0.0858 -0.1633 -0.0904
13414PP      PP23518   9.244   2.888   0.835 -0.3034  0.0556 -0.3598
13415PP      PP23519   2.391  12.681   2.386 -0.0717  0.1335 -0.1227
13416PP      PP23520   6.052   7.260   9.089  0.2142 -0.2065  0.0532
13417PP      PP23521  11.476   4.924  11.780 -0.2282  0.3742  0.0816
13418PP      PP23522   8.690   2.221   0.413  0.0253  0.0736  0.0870
13419PP      PP23523   6.375  12.012   3.435 -0.2441 -0.2034  0.3237
13420PP      PP23524   5.553   3.525  12.153  0.0989  0.0254  0.0299
13421PP      PP23525   0.959   4.316   9.941  0.1288  0.2009  0.0624
13422PP      PP23526   9.845   0.854   0.483  0.2106 -0.0149 -0.2264
13423PP      PP23527  11.855   4.018   4.347  0.1084 -0.0709  0.0694
13424PP      PP23528  14.324   1.216   9.246 -0.0232 -0.0912  0.0584
13425PP      PP23529  14.262  11.770   0.999  0.0209  0.2371 -0.0320
13426PP      PP23530  15.102  13.765  10.147  0.0868 -0.2792  0.0730
13427PP      PP23531  14.207   0.275   9.326 -0.0526 -0.2753  0.1216
13428PP      PP23532  12.176   8.263  11.472 -0.0293 -0.2404  0.1899
13429PP      PP23533  14.008  14.527  12.736 -0.4429 -0.1654 -0.1978
13430PP      PP23534   4.745   9.949   9.649 -0.1013 -0.0701  0.1802
13431PP      PP23535  15.436   6.174  12.389 -0.0042 -0.0975  0.0973
13432PP      PP23536  12.495   3.796   9.706  0.0028 -0.0720 -0.2758
13433PP      PP23537   2.738   9.322  10.832  0.0766 -0.0070 -0.1790
13434PP      PP23538  12.846   9.763   1.136 -0.4366  0.1034 -0.1526
13435PP      PP23539   8.621   8.709  13.429  0.0265  0.3489  0.2329
13436PP      PP23540  10.542  10.714   0.686  0.0351  0.4499  0.1924
13437PP      PP23541  13.732   5.471  11.377  0.1407 -0.1472  0.0800
13438PP      PP23542   6.099   7.897   4.062 -0.1657 -0.1560 -0.1770
13439PP      PP23543   6.410   5.978  11.022 -0.1559 -0.0248  0.0593
13440PP      PP23544   4.494   2.128  10.037  0.1244 -0.2562  0.0006
13441PP      PP23545  11.421  12.043  13.442  0.0071  0.3267  0.3110
13442PP      PP23546   6.201   3.638   9.561 -0.3142 -0.0679  0.0956
13443PP      PP23547   8.400  14.634   2.278  0.1289 -0.1427 -0.2056
13444PP      PP23548  14.808  15.377  10.587  0.1252 -0.0634  0.3132
13445PP      PP23549   4.023   6.813  11.479  0.0200 -0.3379 -0.1691
13446PP      PP23550   9.162   3.250  10.647 -0.1933 -0.1493 -0.0437
13447PP      PP23551   3.172   2.301   0.280 -0.0802 -0.1265 -0.3869
13448PP      PP23552   1.652  14.848  10.728 -0.0017  0.3115  0.1098
13449PP      PP23553  11.180   1.126   2.188 -0.0735  0.2394 -0.2848
13450PP      PP23554  13.444   7.299  10.639 -0.2812 -0.4018 -0.2124
13451PP      PP23555  12.347  15.186  11.023  0.1867 -0.5070 -0.0424
13452PP      PP23556   9.115   5.867   0.760 -0.1503  0.2174 -0.0406
13453PP      PP23557   8.966  12.563   3.163  0.0452  0.0798  0.1937
13454PP      PP23558   5.884   8.626   2.893 -0.0572 -0.0795 -0.0123
13455PP      PP23559   0.981  13.870   2.126 -0.1445  0.0610 -0.1423
13456PP      PP23560  10.609   3.267   3.463  0.0685  0.2122 -0.1159
13457PP      PP23561   8.501   2.247   0.828  0.1021 -0.2140  0.0911
13458PP      PP23562  11.454   4.293   9.166 -0.0153  0.0177 -0.0253
13459PP      PP23563  12.574  13.343   0.233  0.0583  0.1873  0.3476
13460PP      PP23564   7.256   3.852   2.346  0.1053 -0.0922 -0.1566
13461PP      PP23565   8.483  14.774   0.751 -0.1390  0.1267 -0.0721
13462PP      PP23566  12.404   9.811  11.933  0.2282 -0.1868 -0.1628
13463PP      PP23567   7.435  12.580  11.384  0.0986  0.0650  0.2003
13464PP      PP23568  11.984  15.471   9.642 -0.0599  0.0468 -0.3025
13465PP      PP23569   2.632   8.030   2.957  0.3595  0.1085  0.2261
13466PP      PP23570   8.453   2.677  11.493  0.1783  0.1739 -0.0805
13467PP      PP23571   3.303   7.406   1.238  0.3046 -0.0277 -0.0413
13468PP      PP23572  11.143   4.401  11.784 -0.0283  0.1699 -0.4711
13469PP      PP23573   9.525  14.442  11.738 -0.3494 -0.2034  0.0924
13470PP      PP23574   9.343   0.574  11.852 -0.0049 -0.2148  0.1063
13471PP      PP23575   9.437  12.533   2.880 -0.3684 -0.0309  0.0002
13472PP      PP23576   0.714   3.017  11.824 -0.0708 -0.2533  0.0140
13473PP      PP23577   3.357  11.339   1.967  0.2663  0.0672  0.1519
13474PP      PP23578   7.920   0.859  11.268 -0.2394 -0.0091 -0.1650
13475PP      PP23579  13.868   0.923   1.810  0.1326  0.2588 -0.1289
13476PP      PP23580  10.338   8.345   0.148  0.0328  0.1137 -0.3498
13477PP      PP23581  11.154   3.297  12.540  0.3175 -0.2650  0.1917
13478PP      PP23582  15.171   1.497   3.433  0.5355  0.0508  0.3138
13479PP      PP23583  15.586   1.786  11.049 -0.3828  0.1785  0.3320
13480PP      PP23584   0.481   9.782  10.065  0.3142 -0.0007  0.2601
13481PP      PP23585   3.506  12.383   0.552  0.1426 -0.3030  0.1261
13482PP      PP23586   1.766   6.567   3.246 -0.0876 -0.1626  0.0722
13483PP      PP23587   2.713   4.274   9.200 -0.0675 -0.3410  0.1458
13484PP      PP23588   1.131   9.438   1.042  0.4005  0.1118 -0.1376
13485PP      PP23589  11.129   9.011  11.176 -0.0326  0.0748  0.1002
13486PP      PP23590   8.991  11.166   9.224  0.1348  0.4580  0.3163
13487PP      PP23591   6.203  15.658  12.156 -0.0776  0.2654  0.0129
13488PP      PP23592  14.497   6.959  12.395  0.0471  0.0412 -0.1124
13489PP      PP23593   7.340   2.849  11.723 -0.1954 -0.1019  0.2773
13490PP      PP23594   5.064   8.580   2.997 -0.1088  0.0400  0.0782
13491PP      PP23595   8.693   1.257   3.616  0.0862 -0.0484 -0.1334
13492PP      PP23596  13.766  15.855   8.846  0.0281  0.0611  0.2090
13493PP      PP23597   6.642  12.955  13.293 -0.0388  0.0847 -0.1258
13494PP      PP23598   8.090   4.293   1.995  0.1647  0.0046 -0.4531
13495PP      PP23599  13.069  12.121   9.382  0.2410  0.1383 -0.0937
13496PP      PP23600   7.699  13.992   2.762  0.0395  0.1057  0.1190
13497PP      PP23601  12.380   4.619   2.941  0.0491 -0.2553 -0.0681
13498PP      PP23602   8.496  13.833   4.537  0.3488 -0.1238  0.0721
13499PP      PP23603   6.292   7.741  13.379 -0.2843 -0.1007 -0.0630
13500PP      PP23604   1.484   1.503  11.314 -0.0208  0.0794  0.4379
13501PP      PP23605  11.784   0.163   0.468  0.2221 -0.0255  0.1093
13502PP      PP23606   4.400   3.522  11.359 -0.1232  0.4190  0.0247
13503PP      PP23607   5.203   9.355  13.451  0.2946  0.1319  0.0069
13504PP      PP23608  13.197  13.755   1.960 -0.0325 -0.0217 -0.0461
13505PP      PP23609   2.305  12.270  12.748 -0.2421 -0.0996  0.4504
13506PP      PP23610  15.299   5.462   0.510  0.1839  0.0982 -0.3107
13507PP      PP23611  11.453   5.444   2.205 -0.1433 -0.1213 -0.0476
13508PP      PP23612   8.143   9.623  13.335  0.2215 -0.0729 -0.2104
13509PP      PP23613   7.849  10.483   0.002  0.1398  0.2054 -0.0223
13510PP      PP23614   6.855  10.709  11.904 -0.1005  0.3943  0.2351
13511PP      PP23615   6.516   5.008   1.112 -0.0565  0.0978 -0.0395
13512PP      PP23616   3.103   0.919  10.097 -0.0060 -0.0658  0.0152
13513PP      PP23617  10.633  10.907   8.136  0.0342 -0.2298 -0.0614
13514PP      PP23618   3.366  15.297   4.028 -0.1458 -0.3197 -0.0350
13515PP      PP23619   6.686   6.721  13.033  0.0470  0.0244 -0.0556
13516PP      PP23620  15.802   5.475  11.673 -0.0083  0.2753 -0.1573
13517PP      PP23621   0.074  11.778   9.901 -0.0825  0.0004 -0.1082
13518PP      PP23622  13.151  12.330   0.916  0.3393  0.0745 -0.0550
13519PP      PP23623   7.540  13.835   4.322 -0.0804 -0.1296 -0.0120
13520PP      PP23624  12.200   8.034  10.109  0.2695 -0.0402 -0.2366
13521PP      PP23625  15.515   2.493   9.798 -0.0901 -0.0439 -0.0112
13522PP      PP23626  13.579  12.017   9.382 -0.1269  0.0087  0.2138
13523PP      PP23627   6.402   1.520   9.694  0.0235 -0.0869 -0.2653
13524PP      PP23628   8.544  13.015   0.680 -0.2569 -0.0389  0.1724
13525PP      PP23629   3.256  14.570  10.444  0.0720 -0.2469 -0.3587
13526PP      PP23630  14.296   2.976  11.294 -0.2744 -0.1272 -0.0718
13527PP      PP23631   5.682  14.150   4.330 -0.1500  0.0634 -0.0921
13528PP      PP23632   8.292   6.048   0.022 -0.0538 -0.0750  0.0707
13529PP      PP23633  12.629   6.517   2.460  0.0106  0.3356 -0.2310
13530PP      PP23634   3.737   3.666   1.989  0.0276 -0.3126 -0.0880
13531PP      PP23635  14.276  14.274   8.526 -0.2582  0.2772 -0.2501
13532PP      PP23636   3.377   8.623   5.250 -0.0413  0.0678 -0.4529
13533PP      PP23637   9.995   7.724   1.255 -0.3196 -0.2484  0.0702
13534PP      PP23638   4.264   3.065   9.699  0.3622  0.2233 -0.3261
13535PP      PP23639  10.383   5.188  13.365 -0.2909 -0.0221  0.2928
13536PP      PP23640  11.318  14.885  11.295  0.1030 -0.0943  0.0840
13537PP      PP23641   0.694   7.214  12.489  0.0658 -0.0389  0.3178
13538PP      PP23642  10.524   7.370   3.462 -0.0206 -0.1751 -0.0123
13539PP      PP23643   5.657   8.210   4.308 -0.0592 -0.0671  0.2130
13540PP      PP23644   6.724   1.107  13.132 -0.2991 -0.2446  0.1117
13541PP      PP23645   9.054  14.697  10.421 -0.0323  0.0854  0.0283
13542PP      PP23646   6.739  15.821   0.914  0.0632 -0.3231 -0.1795
13543PP      PP23647   2.539  13.071   2.044  0.1718  0.0183 -0.0949
13544PP      PP23648  10.036  10.694   4.323  0.0003 -0.3476 -0.0314
13545PP      PP23649  13.310   9.523   0.478  0.1494 -0.0080  0.2024
13546PP      PP23650   7.394   1.955   1.787 -0.0133 -0.1079 -0.1077
13547PP      PP23651  10.561  10.200  12.422  0.3904  0.2555  0.2378
13548PP      PP23652   7.389  15.317   9.017  0.5816  0.1390 -0.2712
13549PP      PP23653  12.855   6.626   4.430  0.1018 -0.4741 -0.2244
13550PP      PP23654   4.926   5.857  12.986  0.2291  0.1118  0.0800
13551PP      PP23655   8.567   1.370   8.413 -0.2664 -0.1388 -0.1757
13552PP      PP23656  11.833  10.277  11.132  0.0488 -0.0126  0.0175
13553PP      PP23657   6.433  15.353   3.613  0.1888 -0.0619 -0.0868
13554PP      PP23658   7.517   0.402   1.253  0.1471 -0.0944  0.2405
13555PP      PP23659   7.651   3.631  11.424  0.1290  0.2433  0.3563
13556PP      PP23660  15.406   8.589   0.729 -0.0065 -0.0630 -0.1438
13557PP      PP23661   2.391  14.018   2.721 -0.2172 -0.0134  0.1377
13558PP      PP23662   8.080  13.710   1.322  0.1297  0.1907 -0.1064
13559PP      PP23663  15.107  13.165   8.890 -0.1078 -0.1069  0.1063
13560PP      PP23664   2.088  13.493   3.541  0.1368  0.1429  0.0444
13561PP      PP23665  11.333  10.436  10.029  0.0033 -0.2779 -0.0808
13562PP      PP23666   0.764   6.771   2.994  0.0797 -0.0247  0.1011
13563PP      PP23667   9.032  13.793   8.836 -0.3967  0.1181 -0.0756
13564PP      PP23668  15.098  10.973   3.615 -0.0527  0.0173 -0.0497
13565PP      PP23669   4.059  11.716  11.397  0.2906 -0.0491  0.1593
13566PP      PP23670  14.738   7.086   4.069  0.2373  0.2213 -0.1838
13567PP      PP23671  12.751   3.395   1.971  0.4123 -0.0745 -0.0105
13568PP      PP23672  13.531   2.800   2.165 -0.1479  0.2497 -0.1985
13569PP      PP23673   3.891  12.363   2.600 -0.0288 -0.1016 -0.1740
13570PP      PP23674   6.607   0.350  11.424  0.0237  0.2001  0.0999
13571PP      PP23675   3.080  14.124  11.931  0.1088 -0.2179  0.0290
13572PP      PP23676   6.411   7.640  11.826 -0.0946  0.1320  0.1719
13573PP      PP23677   2.819   6.903  11.591 -0.2000  0.1488 -0.0251
13574PP      PP23678   8.317  11.782   9.344 -0.0291 -0.0728  0.1374
13575PP      PP23679   9.745   2.686   1.493 -0.4955 -0.1376  0.0614
13576PP      PP23680   6.241   9.602   4.777 -0.2500 -0.2414  0.2125
13577PP      PP23681   4.391   4.594   1.830 -0.1780  0.6612 -0.0929
13578PP      PP23682  11.748   3.023   1.669 -0.1600  0.2444  0.1330
13579PP      PP23683   8.095  13.105   0.592  0.1952 -0.2579  0.3067
13580PP      PP23684   7.788  12.588  10.840 -0.0268 -0.1651 -0.1791
13581PP      PP23685   8.182   0.478   3.066 -0.0883  0.3972 -0.3253
13582PP      PP23686   4.479   7.935   2.844  0.0811 -0.1513 -0.2534
13583PP      PP23687   2.976  14.441   0.296  0.1708  0.0578  0.1504
13584PP      PP23688   5.766   3.611   3.520  0.0595  0.0422 -0.3617
13585PP      PP23689   5.432   6.180  13.102  0.0288  0.1143  0.0359
13586PP      PP23690   1.846   8.107   2.503  0.3512  0.0731  0.0331
13587PP      PP23691  14.152  12.297   0.948  0.1997 -0.1611 -0.0273
13588PP      PP23692   6.356   7.901  10.422 -0.0333 -0.1266 -0.0576
13589PP      PP23693   9.533   2.574  12.148  0.0302  0.3651  0.0853
13590PP      PP23694   9.495   7.436   3.505 -0.1446  0.3122 -0.0845
13591PP      PP23695   7.555   1.316   8.798  0.0656 -0.0420 -0.0871
13592PP      PP23696  13.149   0.818  12.106 -0.2042  0.2396  0.3360
13593PP      PP23697  15.832   7.954   3.888  0.1008  0.0305 -0.4235
13594PP      PP23698   9.053  13.051   9.667 -0.2145 -0.0557  0.1046
13595PP      PP23699   7.553   6.716   0.238 -0.1069  0.0021  0.2636
13596PP      PP23700  12.125   9.110   2.160 -0.1200  0.2943 -0.0437
13597PP      PP23701   4.230   0.181  12.387 -0.1549 -0.2735 -0.0655
13598PP      PP23702   5.087  12.240  11.226  0.1663 -0.0301 -0.1021
13599PP      PP23703   4.270   9.553   0.030 -0.0610 -0.2951  0.0312
13600PP      PP23704  10.365   4.683  11.561  0.0376 -0.1741  0.6180
13601PP      PP23705  15.388  15.873   1.094 -0.3277 -0.1196  0.1699
13602PP      PP23706  13.294  11.696   1.940 -0.2903  0.2248 -0.2053
13603PP      PP23707  10.014   5.433  11.186 -0.0210  0.0928  0.0394
13604PP      PP23708  12.462   0.083   2.568 -0.1203 -0.0060 -0.1208
13605PP      PP23709   1.968  15.436  12.482  0.0196  0.2318  0.1637
13606PP      PP23710  14.338  12.659  11.000 -0.1441 -0.0284 -0.1703
13607PP      PP23711   3.456   7.819  12.417  0.0197 -0.4017 -0.1080
13608PP      PP23712  14.321  14.438  10.472  0.0395  0.0633 -0.0889
13609PP      PP23713  13.142   4.400   9.437 -0.2534 -0.2066  0.1377
13610PP      PP23714   1.219   7.728  10.951  0.0708  0.2192 -0.3485
13611PP      PP23715  12.750   4.322   1.699  0.0212  0.0350 -0.0548
13612PP      PP23716   6.323   2.208   0.393 -0.1058 -0.0850  0.1307
13613PP      PP23717   7.812  14.180   9.993 -0.0993 -0.0020 -0.1902
13614PP      PP23718   5.064  13.489  12.415  0.2333  0.3962 -0.1958
13615PP      PP23719   3.129   8.101   5.224 -0.2985 -0.0914 -0.0911
13616PP      PP23720   8.797  14.265   0.829 -0.0400  0.2112 -0.0808
13617PP      PP23721   7.930  11.352   2.095  0.1329 -0.0478  0.0229
13618PP      PP23722  10.135   9.424   2.042 -0.2096  0.1009  0.0541
13619PP      PP23723   3.612   9.472  12.927 -0.0669  0.1213 -0.0774
13620PP      PP23724  12.493   9.306  12.401 -0.1161 -0.0009 -0.0136
13621PP      PP23725   3.018   4.035  10.396  0.1637 -0.0296 -0.0939
13622PP      PP23726  15.538  12.089  11.185  0.0647  0.0527  0.1268
13623PP      PP23727  11.406  11.847  12.549 -0.1693  0.1809 -0.0819
13624PP      PP23728  12.375   3.092   2.827  0.0557 -0.0076 -0.2124
13625PP      PP23729  14.433  13.655  12.712  0.3612 -0.0205 -0.0340
13626PP      PP23730  13.498   0.383   9.234 -0.0970  0.0309 -0.1978
13627PP      PP23731   7.674  12.429   0.836  0.0172  0.0959  0.3594
13628PP      PP23732   4.742  13.778   1.859  0.3190  0.0632  0.0398
13629PP      PP23733  10.506   9.764   0.177 -0.1243  0.1822 -0.0212
13630PP      PP23734   5.279   3.962  10.932 -0.0980  0.1973  0.1166
13631PP      PP23735  10.909  12.895  11.760  0.0478  0.1291  0.1872
13632PP      PP23736   0.765   5.857   4.853  0.0012  0.0165 -0.1126
13633PP      PP23737  10.332   6.612  12.126 -0.1770  0.4760  0.0103
13634PP      PP23738   1.993   9.751  12.713  0.0024 -0.0010 -0.0881
13635PP      PP23739  11.112   4.599   3.399 -0.2567  0.0012  0.2687
13636PP      PP23740  15.575  13.060   9.707 -0.2109 -0.0858  0.1813
13637PP      PP23741  11.013  15.625   9.613 -0.0234  0.2770 -0.0481
13638PP      PP23742   5.996   8.319  12.458 -0.1732 -0.1857 -0.0401
13639PP      PP23743   9.075   4.406  12.721  0.0079 -0.0441  0.0055
13640PP      PP23744   8.606   9.737  12.404  0.0473 -0.1299 -0.1475
13641PP      PP23745  12.644   4.424  13.323 -0.0052  0.0065 -0.0117
13642PP      PP23746   9.673   4.183  12.648  0.2119 -0.2120  0.2297
13643PP      PP23747   6.840   0.347  12.577 -0.2255 -0.0883 -0.1192
13644PP      PP23748   9.174  11.178   0.851  0.0714 -0.0359 -0.2122
13645PP      PP23749   9.446   5.412   1.439 -0.0012 -0.2403 -0.0478
13646PP      PP23750  14.459   5.694   9.985  0.0610 -0.2850 -0.0925
13647PP      PP23751   6.415   1.334   4.011  0.3073 -0.1451 -0.1758
13648PP      PP23752   0.906   9.062  10.490 -0.1403  0.3099  0.0126
13649PP      PP23753  10.949   9.573   0.881  0.0906  0.0940 -0.0697
13650PP      PP23754  12.132   3.537   4.276 -0.0027  0.0453 -0.6649
13651PP      PP23755   1.323  15.072  11.008  0.1576  0.0340 -0.2597
13652PP      PP23756   5.958   8.124   0.111 -0.0038 -0.2028  0.1248
13653PP      PP23757  13.821   2.657   1.718  0.0446  0.0049 -0.2121
13654PP      PP23758   0.898   1.259  12.014  0.0237 -0.2020 -0.2281
13655PP      PP23759   0.060  12.961  10.290  0.0225  0.0384 -0.0277
13656PP      PP23760  11.081   3.983   0.431 -0.0849  0.2796 -0.0252
13657PP      PP23761  13.300   7.327   3.033 -0.2049 -0.0438  0.2160
13658PP      PP23762  14.428   4.536   2.871 -0.3086 -0.1695 -0.0831
13659PP      PP23763   6.721  14.979   1.532  0.0118  0.2974  0.2149
13660PP      PP23764   9.545  10.962  11.757 -0.4088  0.3982  0.1588
13661PP      PP23765  12.706  12.424   9.646 -0.4192 -0.0395  0.1203
13662PP      PP23766   5.634  13.676  11.502  0.0061  0.1436  0.2531
13663PP      PP23767   9.138   2.865   9.835  0.0094 -0.2600 -0.0682
13664PP      PP23768  10.154   6.038  13.009  0.0047 -0.2150 -0.2217
13665PP      PP23769  11.312  12.154  10.136 -0.1066  0.2483 -0.1184
13666PP      PP23770   8.487  11.716   4.832 -0.1190  0.2252 -0.0440
13667PP      PP23771  14.580   2.868   5.040 -0.0426 -0.1173 -0.3702
13668PP      PP23772  10.849   9.610   3.293 -0.0410  0.0527 -0.0626
13669PP      PP23773   5.138  14.170  10.033  0.0699  0.0981 -0.2994
13670PP      PP23774   7.772   2.871   2.130  0.1549  0.2777 -0.2238
13671PP      PP23775  14.559   5.002   2.735  0.1335 -0.0936 -0.0593
13672PP      PP23776   3.456  10.657  13.047  0.3438  0.3522  0.3733
13673PP      PP23777   2.004   1.753   8.374  0.0247  0.4932  0.1543
13674PP      PP23778  15.760   0.752   3.695 -0.0334 -0.1480 -0.0662
13675PP      PP23779   0.758   7.199   3.373 -0.0970 -0.1278  0.2900
13676PP      PP23780   7.816   6.344   9.396  0.1042 -0.2156 -0.1434
13677PP      PP23781   0.030   7.561  12.126 -0.0825  0.1452 -0.0585
13678PP      PP23782   4.721   8.143   5.102  0.2321 -0.1302  0.4567
13679PP      PP23783   5.438   6.450   0.065  0.0291 -0.1953  0.0659
13680PP      PP23784  12.843   6.862   3.500 -0.3130  0.0864  0.0182
13681PP      PP23785  12.408  14.074   3.719 -0.1030  0.0247 -0.2100
13682PP      PP23786   5.341  11.585   1.119 -0.1887 -0.1793 -0.2770
13683PP      PP23787   7.340   4.049   8.317 -0.0873  0.1001  0.0442
13684PP      PP23788   2.667   9.390  10.056 -0.0283 -0.1573  0.3030
13685PP      PP23789  15.858  14.500   1.042 -0.0468 -0.1769  0.2443
13686PP      PP23790   3.310   8.008   3.528  0.2951  0.2079 -0.1016
13687PP      PP23791   9.032  12.852  11.579 -0.0148 -0.0922  0.2317
13688PP      PP23792   3.747  12.619  12.307 -0.2631  0.1252 -0.1930
13689PP      PP23793  12.907  13.537   8.847 -0.0682  0.1142 -0.0137
13690PP      PP23794   0.426  12.634  10.216  0.0051  0.2496 -0.0848
13691PP      PP23795   5.988   6.900   0.740  0.1363  0.2156 -0.0937
13692PP      PP23796  13.948   8.998   9.582 -0.1935 -0.2541  0.1118
13693PP      PP23797   0.124   4.209  13.042  0.2112 -0.1651 -0.2416
13694PP      PP23798   8.676   0.607   8.841  0.0587 -0.0387 -0.4198
13695PP      PP23799   5.942  13.857  12.464  0.0146  0.1641  0.5714
13696PP      PP23800  11.353   2.785   0.061  0.1838  0.1328 -0.3488
13697PP      PP23801  12.393   3.208  11.483  0.0140  0.0410 -0.0597
13698PP      PP23802   5.084  12.419   4.061 -0.0040  0.1036 -0.2020
13699PP      PP23803   1.236  10.243   9.567 -0.3928  0.4456 -0.1144
13700PP      PP23804   4.868   0.792   8.636 -0.0578  0.1234  0.0716
13701PP      PP23805  11.313  13.801  11.616 -0.2577 -0.0029 -0.1684
13702PP      PP23806   2.880   1.520  12.483 -0.0272 -0.2460  0.2868
13703PP      PP23807   8.387   6.446   0.397  0.1917  0.2630 -0.0139
13704PP      PP23808   0.478   7.047   0.622  0.2723 -0.0271  0.0230
13705PP      PP23809  13.156   3.321  11.941 -0.2030 -0.0972 -0.1357
13706PP      PP23810   1.064   6.194   0.102  0.3838  0.1025 -0.2134
13707PP      PP23811   4.082   4.636  11.346 -0.2225 -0.0124 -0.2926
13708PP      PP23812  11.300  12.885   8.196 -0.1844 -0.1335 -0.2662
13709PP      PP23813  15.517   1.824   4.305  0.1492  0.2992  0.0794
13710PP      PP23814   8.878  15.590   0.467  0.0625  0.2470 -0.2726
13711PP      PP23815   4.873   7.420  11.416 -0.1402  0.0924  0.0951
13712PP      PP23816  14.962  13.467  11.893  0.1118  0.1019 -0.4231
13713PP      PP23817   1.906   3.295   9.298 -0.1808 -0.0941 -0.1820
13714PP      PP23818   0.925  14.789  10.974 -0.0009 -0.0022  0.1128
13715PP      PP23819  10.386   9.394   8.966  0.1510 -0.0371 -0.0788
13716PP      PP23820  12.893   2.899   9.314  0.4688  0.1064  0.0808
13717PP      PP23821  11.801  15.010   3.817  0.2210 -0.0674  0.0825
13718PP      PP23822  12.673   4.186   2.266 -0.4124  0.0740 -0.0633
13719PP      PP23823   3.372   9.906  10.192  0.0456 -0.1324  0.0688
13720PP      PP23824  10.951  11.931   0.229 -0.1164  0.0642  0.0474
13721PP      PP23825   4.106   8.634   4.289 -0.3642 -0.1050 -0.3720
13722PP      PP23826  13.175   0.179  12.553  0.0598 -0.0246  0.3726
13723PP      PP23827   8.292   6.941  11.466  0.2324  0.1053 -0.0462
13724PP      PP23828  10.655   8.199   1.284 -0.1771 -0.1503  0.1079
13725PP      PP23829   1.006  13.895   3.804  0.2630 -0.1266  0.1364
13726PP      PP23830   6.812  10.684  12.597 -0.0759 -0.1101  0.1602
13727PP      PP23831  12.706   8.110  12.644 -0.1938 -0.2499 -0.0078
13728PP      PP23832   7.166   4.162  10.842 -0.0036  0.3623 -0.1762
13729PP      PP23833   6.445  12.646   0.304 -0.2579  0.2797 -0.0315
13730PP      PP23834   8.489   6.952   0.259  0.0061  0.1370 -0.1683
13731PP      PP23835   7.676   3.397  12.371 -0.0449  0.1755 -0.1933
13732PP      PP23836  14.588  15.779   2.952 -0.0171  0.3693 -0.3862
13733PP      PP23837   8.385   5.848  10.756 -0.1769  0.3149  0.3024
13734PP      PP23838  12.135   3.338   4.799 -0.0375 -0.1731 -0.0087
13735PP      PP23839  10.453   3.457   1.375  0.0345 -0.0544  0.0792
13736PP      PP23840  12.249   0.438   0.844  0.1439  0.0559  0.1506
13737PP      PP23841  13.740  14.335   4.663 -0.0355  0.0849  0.0012
13738PP      PP23842   5.532   0.545  12.822  0.0055 -0.3018  0.0131
13739PP      PP23843   5.850   5.651   3.370  0.1414  0.1776  0.0713
13740PP      PP23844   7.326  10.312   1.695  0.0016 -0.1545 -0.0740
13741PP      PP23845   5.620   3.419  10.442  0.1286  0.0852 -0.2296
13742PP      PP23846  12.146   6.382   2.182 -0.2877  0.0216  0.0704
13743PP      PP23847  13.704  13.615   3.214  0.2414 -0.2024 -0.1683
13744PP      PP23848   9.428   6.050   0.418  0.1397  0.0195 -0.0869
13745PP      PP23849   7.889  15.376   2.629 -0.3053 -0.0167 -0.2211
13746PP      PP23850   1.993   1.796   9.803 -0.2217  0.0934 -0.1122
13747PP      PP23851  13.144   9.268  10.270  0.1028 -0.4374  0.2719
13748PP      PP23852  15.388  14.882   3.151  0.1891 -0.2235 -0.1000
13749PP      PP23853   5.919   5.222  13.175  0.0965 -0.0589  0.0799
13750PP      PP23854   4.780   4.382   0.146 -0.0738  0.0001 -0.1855
13751PP      PP23855   1.990   1.881   2.089 -0.1133  0.2398  0.1255
13752PP      PP23856  11.719  14.005  10.235  0.0945  0.1563 -0.0256
13753PP      PP23857   2.792   1.877   1.355 -0.0193  0.1068  0.1743
13754PP      PP23858   1.821   3.490  10.967  0.1494 -0.1159  0.0281
13755PP      PP23859  10.907  12.460   3.783  0.1998  0.0681  0.1900
13756PP      PP23860  10.438   1.653   2.167 -0.1252 -0.2832  0.0789
13757PP      PP23861  12.535  12.463   8.693 -0.2351 -0.2003  0.1780
13758PP      PP23862  10.933   7.919   0.940 -0.0575 -0.2119  0.1407
13759PP      PP23863  15.515  15.053   8.828 -0.0665 -0.0850  0.2685
13760PP      PP23864   0.899  12.247  11.631  0.1370  0.2225 -0.0150
13761PP      PP23865   7.577   7.114  10.440 -0.3315  0.2503  0.1816
13762PP      PP23866   7.684  15.864   9.629 -0.2175 -0.1258 -0.2735
13763PP      PP23867   4.193   6.973   1.173  0.0888  0.1285 -0.1082
13764PP      PP23868   2.114   4.329  13.400 -0.1777 -0.1395 -0.1900
13765PP      PP23869  11.390  15.094   4.119  0.2246  0.0985 -0.1676
13766PP      PP23870   4.247   4.104   3.214  0.0654 -0.3862 -0.1435
13767PP      PP23871   7.654  10.859   9.766  0.2080 -0.0350  0.2197
13768PP      PP23872   1.441   3.790  12.686  0.5365 -0.2410 -0.0550
13769PP      PP23873   6.037   0.368  11.464  0.0621  0.3371  0.2110
13770PP      PP23874  15.669   5.597   9.460  0.1585  0.1682  0.3379
13771PP      PP23875  15.481   4.447   3.648 -0.2013  0.1346 -0.4182
13772PP      PP23876   1.080   5.607  11.935  0.0893 -0.0425  0.0439
13773PP      PP23877  13.886  12.004  12.289  0.2919  0.2102  0.0384
13774PP      PP23878   2.642   9.946  11.042  0.1544  0.3633  0.1735
13775PP      PP23879   2.175   5.439  11.162 -0.1221 -0.2308 -0.0433
13776PP      PP23880  14.606  14.604  10.845  0.0421 -0.0749  0.3739
13777PP      PP23881  12.429   5.376   1.924  0.1638 -0.0917 -0.1264
13778PP      PP23882   3.165   6.987  13.220 -0.0804  0.0762  0.0868
13779PP      PP23883  12.675   5.274   2.653  0.1433 -0.2472 -0.1665
13780PP      PP23884   2.079  14.532   3.593  0.1282 -0.0014 -0.0755
13781PP      PP23885   7.743  11.313  10.503 -0.1590 -0.0911 -0.1476
13782PP      PP23886  13.698  15.604  10.018  0.1333  0.1223  0.2163
13783PP      PP23887  15.400   8.693   0.060 -0.1663 -0.1502 -0.1277
13784PP      PP23888   5.406  11.124   3.634  0.1866  0.2133  0.0457
13785PP      PP23889   8.105   8.971   4.875  0.1245 -0.1904 -0.1881
13786PP      PP23890   7.703  14.429   8.383  0.1989  0.0755  0.1872
13787PP      PP23891   5.171  13.252   4.528  0.0120 -0.1199  0.1807
13788PP      PP23892  11.841  10.266  13.292  0.2151 -0.0365  0.1836
13789PP      PP23893  14.423   7.610  10.617 -0.1506  0.1831 -0.1095
13790PP      PP23894  10.557   3.565   4.812  0.4363 -0.0060  0.1247
13791PP      PP23895  10.825  10.250  11.902  0.0124 -0.1527  0.0645
13792PP      PP23896   9.353   7.087  10.834 -0.0186  0.1605  0.1515
13793PP      PP23897   7.558   3.313   3.687  0.0538  0.1037 -0.1121
13794PP      PP23898   7.766  15.641   0.502 -0.1608 -0.1439  0.0326
13795PP      PP23899  15.312   1.772   9.636  0.0344 -0.1578 -0.1494
13796PP      PP23900   8.255   2.596  12.895  0.0229  0.0647 -0.2547
13797PP      PP23901  13.443   5.114   2.139  0.0929  0.0928  0.0042
13798PP      PP23902   0.339  13.040  12.484 -0.1276 -0.1155 -0.1599
13799PP      PP23903  13.319  11.121   1.442  0.0925  0.0278 -0.1459
13800PP      PP23904   8.508  10.843  10.939 -0.1689 -0.1146 -0.1774
13801PP      PP23905   4.959  13.950   9.574  0.1627  0.1337  0.0004
13802PP      PP23906   2.477  15.755   1.898 -0.0563  0.3630  0.0651
13803PP      PP23907  15.069   4.462   9.593  0.4048 -0.1610  0.0963
13804PP      PP23908   4.914   1.872   9.786  0.2377  0.2434 -0.0588
13805PP      PP23909   8.808   0.453   0.908 -0.1425 -0.0954  0.0639
13806PP      PP23910  10.478   1.403  10.385  0.2846  0.1913  0.1195
13807PP      PP23911  11.567   6.720  11.058 -0.0154  0.0379  0.2598
13808PP      PP23912  15.412  12.163  12.814  0.0593  0.2040  0.1387
13809PP      PP23913   8.619   0.227   0.554  0.1051  0.0455  0.1547
13810PP      PP23914   5.198   3.217   3.031 -0.4639 -0.3701 -0.0418
13811PP      PP23915  11.009  10.263  11.383 -0.0570 -0.1405  0.2520
13812PP      PP23916  10.441  11.659   9.286 -0.1988  0.1165 -0.1896
13813PP      PP23917   3.111   3.239  10.578  0.2406 -0.1648  0.0304
13814PP      PP23918   2.281  13.189   9.189 -0.0245 -0.0427 -0.1374
13815PP      PP23919   7.039  11.273   4.732  0.2304  0.0639 -0.0571
13816PP      PP23920  11.353   5.114  10.878 -0.2395 -0.0152 -0.1037
13817PP      PP23921  12.386  13.449   3.311 -0.0179 -0.0046  0.1116
13818PP      PP23922  11.560   6.303   2.980  0.1543  0.1103  0.3866
13819PP      PP23923  12.763   9.494  11.093  0.2746  0.0642  0.1177
13820PP      PP23924   0.754   1.444   4.450  0.1792  0.0518  0.0295
13821PP      PP23925  13.139   2.952   1.065  0.3265  0.0046  0.3700
13822PP      PP23926  14.929   2.768   0.643  0.1057 -0.1527 -0.2250
13823PP      PP23927   5.573  14.026  12.987  0.0937  0.0269  0.0246
13824PP      PP23928   7.240   4.961  12.154  0.1802  0.4258  0.1575
13825PP      PP23929   4.805  10.649  12.861  0.0429 -0.0313  0.0103
13826PP      PP23930   8.863  14.521  10.892  0.0093  0.0653  0.0775
13827PP      PP23931   8.619   6.211   3.562  0.0679  0.1274 -0.1366
13828PP      PP23932   4.648  13.225   1.900 -0.0681 -0.2181  0.0876
13829PP      PP23933  13.493  11.749  11.186  0.0326 -0.0595 -0.0005
13830PP      PP23934   5.475  10.191  11.999  0.0480 -0.0758 -0.2473
13831PP      PP23935  14.597   5.659   2.030 -0.1288 -0.0238 -0.0555
13832PP      PP23936   7.317   2.150   0.420 -0.2762 -0.2102 -0.0371
13833PP      PP23937   2.017   5.921  11.726 -0.0779  0.1988  0.1335
13834PP      PP23938   1.408   8.472   4.600  0.3070  0.2313 -0.2765
13835PP      PP23939   8.090  13.385  13.195  0.1307 -0.1154 -0.2256
13836PP      PP23940   4.051   3.846   4.151 -0.3189  0.2441  0.1482
13837PP      PP23941   3.363  12.918  12.618 -0.1093 -0.1139 -0.3523
13838PP      PP23942   8.501   4.850   9.304 -0.2390  0.4135  0.0617
13839PP      PP23943  14.442  13.655  10.982 -0.1254 -0.3734  0.0193
13840PP      PP23944   8.269   9.398  11.573 -0.2268 -0.0445  0.0945
13841PP      PP23945   3.999   0.068   9.572 -0.1952 -0.2768  0.0032
13842PP      PP23946  14.921   5.633   0.137  0.0488  0.0942  0.3652
13843PP      PP23947   1.041   8.665   3.525 -0.1223  0.0446 -0.2101
13844PP      PP23948  15.796  10.593   3.098 -0.1425  0.0802 -0.1373
13845PP      PP23949   8.372   2.874  10.091 -0.3457 -0.0627  0.1134
13846PP      PP23950   5.404  13.153   1.367 -0.0619  0.0075 -0.1270
13847PP      PP23951   0.401  14.080  10.132  0.1326  0.0915  0.3645
13848PP      PP23952  15.185   6.269  11.252 -0.0143  0.0117 -0.0653
13849PP      PP23953  14.488  11.971   9.781 -0.2251 -0.1007  0.1955
13850PP      PP23954   1.017   0.598   4.587  0.1543  0.2908  0.0977
13851PP      PP23955   3.822   1.587  12.734 -0.0465  0.0463 -0.0638
13852PP      PP23956  15.657   3.915   2.563  0.3227  0.0154  0.0734
13853PP      PP23957   5.145  11.012  13.072 -0.1922  0.0796 -0.2451
13854PP      PP23958   9.156   4.903   9.847 -0.1906  0.1787 -0.0425
13855PP      PP23959   7.668   6.970   3.456  0.1455 -0.1144  0.1391
13856PP      PP23960  11.585  13.386   2.795 -0.0541  0.0472 -0.0637
13857PP      PP23961   7.975  14.266   4.299 -0.1103 -0.1680  0.1902
13858PP      PP23962   5.054   7.202   2.519 -0.1460 -0.1027  0.0533
13859PP      PP23963   3.852  11.245   9.755  0.2236  0.4240  0.1983
13860PP      PP23964  13.164  12.110   1.580 -0.1179  0.0278 -0.2814
13861PP      PP23965   0.072   3.832   2.994 -0.0268 -0.0451  0.0619
13862PP      PP23966  15.585   7.317  12.946  0.2266  0.0867  0.1645
13863PP      PP23967   3.798   5.358   2.988  0.0614  0.1221  0.1000
13864PP      PP23968   3.742  13.677  12.339 -0.1003 -0.0744 -0.1681
13865PP      PP23969  15.416  14.056   2.390 -0.0737 -0.0746  0.2976
13866PP      PP23970   1.127   1.212  13.060  0.0341 -0.1113 -0.0167
13867PP      PP23971   3.536   9.050   0.867  0.0498  0.0877  0.2053
13868PP      PP23972   7.676  13.630  13.274 -0.0052 -0.3577 -0.2088
13869PP      PP23973   7.184  12.587   2.358  0.3032  0.1192  0.0913
13870PP      PP23974   8.941   5.845  10.718 -0.0552  0.1247  0.1435
13871PP      PP23975   4.618   8.225   3.391 -0.2054 -0.1538  0.0407
13872PP      PP23976  13.309   5.826  11.090  0.0449  0.3656 -0.1403
13873PP      PP23977   9.871   6.526   0.919 -0.4208  0.0199 -0.1686
13874PP      PP23978  14.864  15.123   0.620  0.2499  0.1397 -0.0851
13875PP      PP23979   1.304   1.642   3.014 -0.0437  0.1124 -0.2000
13876PP      PP23980   3.577   7.372   4.402  0.2774 -0.0398  0.0720
13877PP      PP23981   0.929   6.331   1.408  0.2001  0.1025  0.0546
13878PP      PP23982   2.687   5.990   3.767 -0.0647  0.2010  0.2340
13879PP      PP23983   9.311  14.317  10.115  0.0277  0.0153  0.0156
13880PP      PP23984   3.147  13.314   9.140  0.1270 -0.0126  0.0235
13881PP      PP23985  11.052   6.685   8.857  0.0683 -0.1265 -0.2528
13882PP      PP23986   9.584  13.542  13.146 -0.0044  0.1104 -0.2446
13883PP      PP23987   1.911  14.239   3.007  0.2208 -0.2248 -0.0272
13884PP      PP23988   4.606  11.703   1.769  0.2484  0.2479 -0.5479
13885PP      PP23989   7.040  11.287  12.806 -0.1787 -0.2266 -0.3296
13886PP      PP23990   9.259  14.771   1.478  0.2849  0.0043  0.3583
13887PP      PP23991   4.643   3.774   2.906  0.3647 -0.1535  0.0903
13888PP      PP23992  15.538   6.059  12.924  0.0003 -0.0204  0.0350
13889PP      PP23993   4.781   9.658  13.209 -0.0823 -0.1389  0.2007
13890PP      PP23994   3.646  15.749   8.925 -0.1343 -0.2347  0.1517
13891PP      PP23995   5.246   1.538   0.977  0.1983 -0.0282 -0.0679
13892PP      PP23996  12.903   8.580   9.782  0.2760  0.1154 -0.0599
13893PP      PP23997  14.165   9.136  12.182  0.1146  0.2366 -0.1568
13894PP      PP23998   0.001   8.034   2.840 -0.0359  0.1966  0.1091
13895PP      PP23999   1.933   9.706   2.316 -0.1114 -0.0363  0.2160
13896PP      PP24000   4.769  14.111  11.909 -0.0873 -0.0648  0.3357
13897PP      PP24001   5.982   9.616  10.799 -0.1173  0.0171 -0.1649
13898PP      PP24002   4.907  12.551  12.998 -0.0001  0.2624  0.0589
13899PP      PP24003  15.575  10.263   1.656 -0.0774  0.3830  0.1426
13900PP      PP24004  11.692   9.841  10.712 -0.0677  0.1992  0.0780
13901PP      PP24005   1.227   3.939   3.447  0.2476  0.1128 -0.1616
13902PP      PP24006  12.169   4.690   1.440  0.4353 -0.0665 -0.1960
13903PP      PP24007   5.504   0.911  10.830 -0.2968 -0.1046  0.0254
13904PP      PP24008   8.615   9.215   2.643 -0.0752  0.2374 -0.2240
13905PP      PP24009   9.740  12.690   9.348  0.1078  0.2968  0.0717
13906PP      PP24010   5.697  15.010   2.662  0.0800 -0.0896 -0.2076
13907PP      PP24011   3.669   1.507   2.994  0.1246 -0.1429  0.1652
13908PP      PP24012   7.847  13.093   9.608  0.1654  0.5215  0.0019
13909PP      PP24013   7.030   6.729   9.356  0.3853  0.2296  0.0638
13910PP      PP24014   4.209   4.413   4.105  0.1931  0.1667 -0.1305
13911PP      PP24015  10.067  14.891  11.997  0.0095  0.0116 -0.0955
13912PP      PP24016   2.640  13.545  12.582 -0.0794 -0.1411 -0.0059
13913PP      PP24017  14.766   7.553   5.474 -0.2293 -0.2971 -0.0932
13914PP      PP24018  12.734   5.465  12.960  0.0766 -0.0279  0.0477
13915PP      PP24019   2.907  13.633   0.685 -0.1065  0.0901  0.0893
13916PP      PP24020   0.419   0.750   3.755  0.3366  0.0570  0.0373
13917PP      PP24021  12.841   2.249  11.980 -0.2818 -0.0624  0.1273
13918PP      PP24022   1.592  14.405   1.565  0.0849 -0.3616  0.0431
13919PP      PP24023   3.165   4.501  11.980  0.5003  0.1546  0.2971
13920PP      PP24024  10.742  10.755   1.330 -0.0356 -0.3618  0.2119
13921PP      PP24025  11.689   4.334   3.881  0.0083 -0.0416 -0.0878
13922PP      PP24026  10.384   3.740   3.410  0.1285  0.0236  0.2543
13923PP      PP24027  13.470   9.515  11.698  0.1494  0.0847  0.2121
13924PP      PP24028  12.720   2.459  12.478 -0.1180  0.2003  0.2908
13925PP      PP24029   3.208   8.611  12.762 -0.4005 -0.2401 -0.0844
13926PP      PP24030   3.178   5.341  12.895 -0.1374 -0.1419 -0.1129
13927PP      PP24031   4.438   9.316   0.995 -0.0223  0.3537 -0.1946
13928PP      PP24032   0.061   2.384  12.322 -0.1947 -0.2613  0.0698
13929PP      PP24033   2.966   2.286   3.098  0.2650  0.0827  0.2562
13930PP      PP24034  15.502   6.124   3.392 -0.2941  0.0242 -0.1516
13931PP      PP24035   1.593   7.185   4.355  0.0441 -0.0008 -0.1331
13932PP      PP24036   6.570  13.421   9.986  0.0109 -0.3780 -0.0929
13933PP      PP24037   0.713   5.906   3.670 -0.0016 -0.1034  0.0005
13934PP      PP24038   2.646  12.546   2.795 -0.2420  0.1529 -0.0090
13935PP      PP24039  15.297   5.276  11.521  0.0642  0.1180  0.0119
13936PP      PP24040   4.390  10.824   1.380  0.0194 -0.0982 -0.1006
13937PP      PP24041   5.858  13.366  11.168 -0.2322  0.0566  0.1905
13938PP      PP24042   6.753   9.924   3.351 -0.2148 -0.1925  0.0586
13939PP      PP24043   9.616  13.450  12.211 -0.0924 -0.0399 -0.1627
13940PP      PP24044   8.836   3.713   1.755 -0.2040 -0.0897 -0.0794
13941PP      PP24045  13.596   0.093   2.886 -0.1689 -0.1102 -0.2969
13942PP      PP24046   3.737  10.637   9.490 -0.1692 -0.2958 -0.2807
13943PP      PP24047  12.280   8.094   9.471  0.3685 -0.0364 -0.2400
13944PP      PP24048   0.810   4.935   4.207  0.1784  0.2005  0.1453
13945PP      PP24049   6.952   8.135  10.596  0.2961 -0.1101  0.0155
13946PP      PP24050   2.710   9.930   4.310 -0.0490  0.1889 -0.0967
13947PP      PP24051  13.531   4.399  12.835  0.1257  0.1520 -0.1091
13948PP      PP24052   5.280   1.516   2.064 -0.2762 -0.0128  0.0079
13949PP      PP24053   3.817   9.084   1.662 -0.1662  0.0544 -0.0429
13950PP      PP24054   6.040   6.968   3.305 -0.2382  0.3442  0.1956
13951PP      PP24055   6.558   9.192  12.074  0.1580  0.1472 -0.1212
13952PP      PP24056   9.944   9.437   4.385 -0.1243 -0.0354  0.1888
13953PP      PP24057   4.800   0.880   0.658 -0.1132 -0.0071 -0.0364
13954PP      PP24058   0.874  15.215  10.642 -0.0328  0.0910  0.0548
13955PP      PP24059  11.028   8.662  10.682  0.1263 -0.0178  0.0033
13956PP      PP24060   5.768  11.487   3.740 -0.0304 -0.0287 -0.0573
13957PP      PP24061   8.961   9.865   3.113 -0.2369  0.1686 -0.2006
13958PP      PP24062  14.291   9.708   1.400  0.2350 -0.0057  0.0109
13959PP      PP24063   8.701  12.325  13.260  0.1352 -0.1232  0.0260
13960PP      PP24064   2.850   0.507  13.377 -0.0180 -0.0879  0.0569
13961PP      PP24065   2.082  15.085  10.944  0.0482 -0.3133  0.3049
13962PP      PP24066   3.679  12.955  10.341 -0.2788  0.0864 -0.0781
13963PP      PP24067   2.468  11.761   0.930 -0.1982  0.2152  0.1171
13964PP      PP24068   6.547   4.736  10.431 -0.0332  0.1416  0.1309
13965PP      PP24069   5.704  12.986   0.419  0.0383  0.0355  0.0277
13966PP      PP24070   4.807   6.278   2.919 -0.0475 -0.3892 -0.1588
13967PP      PP24071   1.597  14.630  10.200  0.1631 -0.0337 -0.0712
13968PP      PP24072   6.461  12.672   2.162  0.1105 -0.2232  0.3523
13969PP      PP24073  14.998  13.224   2.741 -0.3685 -0.1463 -0.0332
13970PP      PP24074  10.514  11.683   4.178  0.0539  0.1868  0.0895
13971PP      PP24075  13.618   0.341  11.474  0.1135 -0.1750 -0.2570
13972PP      PP24076   6.609  11.027   0.697  0.0802 -0.1336 -0.0794
13973PP      PP24077   3.830   4.032  12.021  0.2467  0.2380  0.0647
13974PP      PP24078  12.398   0.909   0.055 -0.2695  0.0515  0.0080
13975PP      PP24079  11.664   5.559  12.928 -0.0984 -0.1027  0.0402
13976PP      PP24080  12.593   4.377   4.050 -0.1104  0.5388  0.2491
13977PP      PP24081  14.763  11.640   1.996 -0.0227  0.0637 -0.1331
13978PP      PP24082   6.210   7.930   9.425  0.0671 -0.1126 -0.1152
13979PP      PP24083  15.674   1.883  11.523  0.1163 -0.1871  0.1243
13980PP      PP24084   7.195  11.563  12.356 -0.1013 -0.0824  0.2929
13981PP      PP24085  12.755  15.617   1.066 -0.2025 -0.2253  0.1004
13982PP      PP24086  13.072   7.797   4.514 -0.0981 -0.0629 -0.3431
13983PP      PP24087   5.445  11.279   4.331  0.4555 -0.0727  0.1940
13984PP      PP24088  11.904  11.778  12.687 -0.0107 -0.1557  0.1227
13985PP      PP24089   0.007   7.611   1.691  0.0649 -0.2949 -0.3817
13986PP      PP24090   7.737   9.342   1.912  0.1908 -0.0012 -0.2608
13987PP      PP24091  15.018   6.468  13.184  0.1209  0.1321 -0.0859
13988PP      PP24092   1.357  13.753   9.790  0.1079  0.1610  0.1394
13989PP      PP24093   5.137  15.348   2.598  0.2058 -0.0500 -0.0246
13990PP      PP24094   5.357  11.302  10.921  0.0654  0.0311  0.1346
13991PP      PP24095  14.453   1.585  11.023  0.1711  0.1433  0.0146
13992PP      PP24096   0.657  13.687  10.276 -0.1268 -0.0984 -0.0171
13993PP      PP24097   8.264  13.141   3.337 -0.0734 -0.1014 -0.1670
13994PP      PP24098   1.607   6.486   2.002  0.1686 -0.4331 -0.0291
13995PP      PP24099   1.268  12.151   3.278 -0.3811  0.1148  0.5069
13996PP      PP24100  15.009   7.255   1.909  0.0338  0.2981 -0.1700
13997PP      PP24101   8.973   1.016   0.972 -0.0304  0.0759  0.1309
13998PP      PP24102   5.115  11.922   2.867  0.1543 -0.0627  0.0721
13999PP      PP24103   2.087   6.097  10.219 -0.0679 -0.0267 -0.0994
14000PP      PP24104  14.932  15.241   9.607 -0.3974 -0.1323 -0.1451
14001PP      PP24105  12.456   1.841  10.764 -0.1302  0.1196  0.0846
14002PP      PP24106  10.820   4.204   4.206  0.1413  0.0518 -0.1046
14003PP      PP24107   5.238  15.843  10.474  0.1809  0.2972 -0.1387
14004PP      PP24108   5.694   5.393   9.715 -0.2930  0.0592  0.0350
14005PP      PP24109   3.506   5.015  12.510 -0.3588 -0.1961  0.0998
14006PP      PP24110  13.605  12.195  13.076  0.0868 -0.3250 -0.2330
14007PP      PP24111   3.031   6.249  12.108 -0.1936 -0.1401 -0.1185
14008PP      PP24112  11.433  12.337   2.541 -0.0797  0.1347  0.1240
14009PP      PP24113   1.127   2.728  10.112  0.3581 -0.0439  0.1095
14010PP      PP24114   7.817   3.021   1.118 -0.4207  0.3037 -0.2704
14011PP      PP24115   8.472  12.290   9.032  0.1159 -0.2102  0.3320
14012PP      PP24116   0.957   5.519   3.899 -0.0264 -0.0040  0.2323
14013PP      PP24117   5.120   9.058   2.957  0.0559  0.2710 -0.0201
14014PP      PP24118  14.893  15.308   2.298  0.0120 -0.1170 -0.1562
14015PP      PP24119  14.401   5.537   1.237  0.1194  0.1430 -0.2336
14016PP      PP24120  12.416   5.707   4.010 -0.0771 -0.1659 -0.0713
14017PP      PP24121   6.924   0.612   4.591 -0.0504 -0.0829 -0.2393
14018PP      PP24122  10.011   4.548   2.073  0.2671 -0.2922  0.0494
14019PP      PP24123  12.464  13.245  10.364  0.3591  0.0441 -0.3680
14020PP      PP24124  12.552   2.329   1.315 -0.0718  0.0038 -0.2594
14021PP      PP24125  13.977   3.221  10.990 -0.0754 -0.1531 -0.0428
14022PP      PP24126  12.217   7.694   0.857  0.0626  0.0569  0.2907
14023PP      PP24127  11.676  11.401  13.439  0.2156 -0.0829 -0.1910
14024PP      PP24128   1.873   5.259   2.992 -0.0226  0.2529  0.1476
14025PP      PP24129   6.495  13.160   2.119  0.2348 -0.3584 -0.1426
14026PP      PP24130   2.816  10.548   1.918  0.3467  0.1038 -0.2544
14027PP      PP24131   1.106   0.068   4.343  0.0287  0.1784  0.0126
14028PP      PP24132  10.606   8.937   3.507 -0.1744 -0.0024  0.0243
14029PP      PP24133   0.663   1.392   0.905  0.2081  0.0621  0.0688
14030PP      PP24134   6.897   4.204   9.172  0.1589  0.5872  0.0229
14031PP      PP24135   7.323   0.289   2.727 -0.1284  0.1473  0.1322
14032PP      PP24136   3.996   9.382   2.023  0.0637  0.0004 -0.2910
14033PP      PP24137   5.815   9.854  11.726  0.3456  0.1279 -0.0472
14034PP      PP24138   9.471   9.553  11.127  0.1959 -0.2081  0.0765
14035PP      PP24139   0.765  13.297   2.738  0.0068 -0.2316 -0.0107
14036PP      PP24140   4.141  11.824  10.451  0.4408  0.0735  0.0433
14037PP      PP24141   5.722   4.959  12.362  0.0022 -0.0463  0.2444
14038PP      PP24142   7.172  13.876   3.996  0.0734 -0.0507  0.1890
14039PP      PP24143   1.425   4.294   2.701  0.0096  0.2556  0.1180
14040PP      PP24144  12.584   7.371  12.888 -0.1632 -0.1506 -0.0838
14041PP      PP24145   7.646  10.725   3.785 -0.1442  0.0262  0.1107
14042PP      PP24146  12.807   6.447   1.040 -0.0153  0.0848 -0.0444
14043PP      PP24147   8.887  10.579  11.236  0.3959 -0.1900  0.3480
14044PP      PP24148   1.806   5.139  11.236  0.2559  0.0445 -0.0686
14045PP      PP24149   6.994  13.279   2.935  0.0747  0.1512 -0.0915
14046PP      PP24150   5.205  13.159   0.286  0.1533 -0.1301 -0.3427
14047PP      PP24151   6.936  11.854   9.347 -0.0114 -0.1306 -0.1313
14048PP      PP24152  13.182   4.523   1.087  0.1641  0.1122 -0.4009
14049PP      PP24153   0.026   7.230   1.993 -0.0152 -0.0080 -0.0861
14050PP      PP24154   3.177   1.933  13.172  0.0802  0.1996 -0.1383
14051PP      PP24155  10.021  10.202  12.337  0.0115 -0.2116 -0.3319
14052PP      PP24156   7.522  12.316   8.875  0.2095  0.0556 -0.2634
14053PP      PP24157  12.866   3.196   2.982  0.1208  0.0924  0.0384
14054PP      PP24158   0.318  15.099   9.144 -0.1947  0.0824  0.0221
14055PP      PP24159  11.099  10.486   9.082 -0.1653 -0.0161 -0.1837
14056PP      PP24160   7.138  15.489  11.310  0.2069 -0.3514 -0.1004
14057PP      PP24161   6.771   2.431   3.272 -0.0845 -0.0145 -0.1594
14058PP      PP24162   1.946   3.654   0.875  0.3501 -0.0028 -0.2332
14059PP      PP24163   8.103  11.641  10.694 -0.2773 -0.0074  0.0202
14060PP      PP24164   5.330  13.526  13.251 -0.2838 -0.1041  0.0760
14061PP      PP24165   6.097   8.668   0.963  0.1933  0.2048  0.0665
14062PP      PP24166   9.405  10.002   1.092 -0.1117 -0.2267 -0.1244
14063PP      PP24167   4.551   8.676  12.116 -0.1105  0.0174  0.3889
14064PP      PP24168   3.680   9.840   4.357  0.0131 -0.0024  0.0115
14065PP      PP24169   8.485  11.187  12.412  0.4018 -0.1202 -0.3151
14066PP      PP24170  10.610   5.345   8.969 -0.0854  0.0439 -0.1737
14067PP      PP24171   2.068  13.127   9.629 -0.0639  0.2644  0.0051
14068PP      PP24172   4.527  12.151  12.110 -0.2278 -0.1596  0.0984
14069PP      PP24173  14.880  12.416  13.341  0.0535  0.1980 -0.2280
14070PP      PP24174   1.722  14.042   9.535 -0.1218 -0.1543  0.0035
14071PP      PP24175  10.161   8.954   8.867  0.0037  0.1072 -0.0601
14072PP      PP24176   9.966   9.682   9.337  0.2455  0.1769  0.2554
14073PP      PP24177  14.965   3.809  10.456  0.1005 -0.0705 -0.2081
14074PP      PP24178   1.998  14.943  10.298 -0.0549 -0.2445 -0.0872
14075PP      PP24179   2.081  14.867   3.963 -0.1614  0.1388  0.1834
14076PP      PP24180  13.381   6.745  11.409  0.0851  0.0641  0.0551
14077PP      PP24181  11.775  13.913   2.460 -0.2531  0.3289 -0.1233
14078PP      PP24182   4.960  10.621   0.962 -0.2151 -0.0494  0.1358
14079PP      PP24183  12.678   5.904   9.844 -0.0647 -0.0071  0.3028
14080PP      PP24184  11.044  15.464  12.857  0.0194 -0.0747 -0.2414
14081PP      PP24185   1.381  14.937   1.521 -0.0166  0.1091  0.0663
14082PP      PP24186  10.532  12.450  12.513 -0.0074  0.1075  0.0145
14083PP      PP24187   0.204  13.542   0.571  0.0661  0.0312 -0.2042
14084PP      PP24188   5.299   8.246   2.540 -0.1654 -0.3416 -0.0104
14085PP      PP24189  14.667   1.582   2.599 -0.0269  0.0792  0.0694
14086PP      PP24190   2.292   7.114   1.889 -0.1834 -0.3806 -0.0612
14087PP      PP24191  13.985  10.820  11.877 -0.1809  0.1564 -0.0598
14088PP      PP24192   1.094   7.352   3.724  0.0150  0.0333 -0.0518
14089PP      PP24193  13.157   8.856   2.508 -0.0378  0.0903  0.0103
14090PP      PP24194  13.004   5.003  11.741 -0.0330 -0.0116  0.3699
14091PP      PP24195   2.418   8.206  13.436 -0.0020  0.1677 -0.1478
14092PP      PP24196   4.914   5.214   3.695 -0.1104 -0.4286  0.1163
14093PP      PP24197   2.319  11.382  13.341  0.3849 -0.0767  0.0589
14094PP      PP24198  10.794   6.692  11.135 -0.1122  0.3495  0.0708
14095PP      PP24199   9.102  12.714  13.146  0.1901  0.1461 -0.5134
14096PP      PP24200  14.482   9.317   9.233  0.1073 -0.2297 -0.2889
14097PP      PP24201   4.868   1.972  13.228  0.0829 -0.0335 -0.3474
14098PP      PP24202   4.582  14.511   4.655  0.3363  0.1360 -0.0850
14099PP      PP24203  13.367   4.607  10.351  0.0028  0.3144  0.0276
14100PP      PP24204   2.065  13.794  12.991 -0.0306 -0.2451 -0.3699
14101PP      PP24205   6.052   4.692   4.443 -0.0752  0.0936  0.1868
14102PP      PP24206  12.016  12.938   2.542 -0.3353 -0.3622 -0.2180
14103PP      PP24207  13.299   2.930  10.458  0.0584 -0.3574 -0.2069
14104PP      PP24208  12.411   7.251  12.185  0.0286 -0.3966  0.4041
14105PP      PP24209   0.248   0.768   9.526 -0.0993 -0.0075  0.0385
14106PP      PP24210   0.529   1.939  10.822  0.1358 -0.1323  0.2980
14107PP      PP24211   9.617   5.472   9.895 -0.4298  0.1298 -0.3470
14108PP      PP24212  13.017   9.945   8.459  0.1233 -0.0155  0.4003
14109PP      PP24213   7.253   3.436  11.719 -0.0685  0.0241 -0.0589
14110PP      PP24214   3.259   1.114  11.048 -0.1020  0.1203  0.0774
14111PP      PP24215  12.398   8.140   0.869 -0.1292  0.1817  0.1186
14112PP      PP24216  10.512   0.786   2.398  0.1507  0.2033 -0.1985
14113PP      PP24217  13.776  15.666   2.093  0.2397  0.0589  0.1373
14114PP      PP24218   3.695  13.729   4.590  0.3069 -0.2292 -0.0127
14115PP      PP24219  15.688  11.078   0.973  0.0301  0.2585 -0.2026
14116PP      PP24220   6.952  11.821   2.331  0.1843  0.0282  0.2516
14117PP      PP24221  10.263   6.866  11.272  0.0186  0.0404  0.0151
14118PP      PP24222   0.350  11.325   9.940  0.0163  0.0162 -0.1077
14119PP      PP24223  13.488   9.848   4.379 -0.1228 -0.3976 -0.1659
14120PP      PP24224   9.260   8.173   0.065  0.0393 -0.0746  0.0046
14121PP      PP24225   7.761  14.582   9.504 -0.1144 -0.0253 -0.2036
14122PP      PP24226   1.146   5.998   4.563  0.0492 -0.2477 -0.1635
14123PP      PP24227  10.214   1.223   0.540 -0.0206  0.2262 -0.1100
14124PP      PP24228  10.455  15.501  12.669 -0.1255 -0.2951 -0.0012
14125PP      PP24229  12.886   9.762  10.287 -0.0401  0.2938 -0.0936
14126PP      PP24230   8.433   2.743  12.268  0.4384  0.1386 -0.0155
14127PP      PP24231   9.651  13.336  11.294 -0.3744  0.1025 -0.3590
14128PP      PP24232   5.451   8.122  10.655  0.1262  0.0964 -0.0765
14129PP      PP24233   1.349   2.981   0.136  0.0669 -0.3006 -0.0686
14130PP      PP24234   2.747  15.014   8.659 -0.0701  0.2615 -0.1022
14131PP      PP24235   4.831  13.491   3.018 -0.5236 -0.0360 -0.0376
14132PP      PP24236   3.211   8.692   9.783 -0.0328 -0.0909  0.0721
14133PP      PP24237  13.752   0.205  10.104  0.2601  0.0594 -0.1558
14134PP      PP24238   9.843   7.338  11.601 -0.3387 -0.1060  0.0803
14135PP      PP24239   1.897  14.535  13.349  0.1193 -0.1145  0.1827
14136PP      PP24240   6.614   3.458  11.310 -0.0773 -0.2472 -0.0211
14137PP      PP24241   4.907  14.660  11.732  0.0127 -0.1596  0.0445
14138PP      PP24242   5.575  11.601  11.331 -0.0660 -0.1493 -0.4662
14139PP      PP24243   4.242   6.004   5.477 -0.1715  0.0622 -0.0715
14140PP      PP24244  15.345  10.386   9.698 -0.4182  0.2395  0.0449
14141PP      PP24245   5.351  15.476   3.960  0.0050 -0.2730  0.2470
14142PP      PP24246  15.232   3.222   0.827  0.1618  0.0012 -0.0017
14143PP      PP24247   7.878  14.420  12.866 -0.0138 -0.0958  0.1335
14144PP      PP24248   0.272   0.327   1.552 -0.1271 -0.1881  0.0839
14145PP      PP24249   2.351   4.721  10.135  0.2570  0.0037 -0.1735
14146PP      PP24250   8.719   7.134  11.419 -0.3295  0.0424  0.1425
14147PP      PP24251   4.084   9.012   0.672 -0.1421 -0.1429 -0.0031
14148PP      PP24252   2.624  13.214   0.827 -0.3397 -0.0534  0.0673
14149PP      PP24253  14.848   7.466  12.256 -0.0191  0.3566 -0.1003
14150PP      PP24254  14.150   1.732   9.324 -0.0817 -0.3110  0.0202
14151PP      PP24255   4.322  13.231   9.946 -0.0663 -0.2617  0.2102
14152PP      PP24256  15.792   4.760  12.289 -0.0481 -0.0179  0.3244
14153PP      PP24257   5.008   1.136  12.255 -0.1055 -0.2517 -0.1558
14154PP      PP24258   1.496   9.432   5.148 -0.0743 -0.0020  0.0126
14155PP      PP24259   4.037   0.910   9.885  0.0987  0.3606 -0.0446
14156PP      PP24260  10.581   9.269   2.255  0.2859  0.2629 -0.0811
14157PP      PP24261   6.182   9.549  12.018 -0.1251  0.0109  0.0176
14158PP      PP24262  14.009   8.322  10.270 -0.0975 -0.0654  0.5339
14159PP      PP24263   3.179   0.007  11.833 -0.0239  0.1521 -0.1471
14160PP      PP24264   9.205   2.490  13.111 -0.1856 -0.3419  0.0794
14161PP      PP24265  11.730  15.405   8.481 -0.0259  0.0333 -0.0740
14162PP      PP24266   7.238   5.996   4.735 -0.1992 -0.0396  0.1226
14163PP      PP24267   5.173   8.612   4.449  0.0579  0.3395  0.0203
14164PP      PP24268   2.232  11.279  11.895  0.0923  0.0121  0.0311
14165PP      PP24269   9.867   3.890   9.063  0.1674 -0.2207  0.0708
14166PP      PP24270  10.453   4.048   4.548 -0.0914  0.1621  0.1234
14167PP      PP24271   5.818   6.075   0.251 -0.0513 -0.2706 -0.0683
14168PP      PP24272  14.885  13.187   3.587 -0.0811 -0.0963  0.2070
14169PP      PP24273   2.321   7.205   3.091 -0.2230 -0.0927 -0.0548
14170PP      PP24274   9.005  15.315   0.006 -0.3229 -0.0946  0.0651
14171PP      PP24275   6.312   4.814   9.521  0.4712 -0.2424  0.0138
14172PP      PP24276  12.799   0.980   4.629 -0.4415  0.2506 -0.1359
14173PP      PP24277  13.704   9.270   2.358  0.2041  0.1023  0.0365
14174PP      PP24278  14.880   1.509   1.943  0.1068 -0.1728  0.1455
14175PP      PP24279   6.665   6.262   0.462  0.3094 -0.3112 -0.0906
14176PP      PP24280  15.445   0.855   2.510 -0.0171  0.2967  0.0972
14177PP      PP24281  14.119   9.679   4.456  0.1350 -0.2428 -0.2344
14178PP      PP24282  14.447   5.693   4.019  0.0012  0.1059 -0.1865
14179PP      PP24283  10.763   6.973   3.023 -0.0973 -0.1518 -0.0690
14180PP      PP24284   3.149   4.896   9.776 -0.2171  0.1501 -0.1209
14181PP      PP24285  15.659  12.578  12.818  0.0210  0.5408  0.4806
14182PP      PP24286   3.792   3.275   3.286 -0.0151  0.0171  0.0067
14183PP      PP24287  10.452   9.500  11.789  0.1917  0.0028 -0.0562
14184PP      PP24288  10.115   0.231   3.011 -0.4787  0.1415  0.1787
14185PP      PP24289   9.698  11.645   2.633  0.0586 -0.1770  0.2699
14186PP      PP24290   3.224  13.011   2.834  0.1006 -0.3523 -0.0227
14187PP      PP24291  14.566  14.822   4.389  0.0727 -0.0010 -0.1199
14188PP      PP24292   6.268   9.819   3.366  0.5857 -0.1344 -0.0552
14189PP      PP24293  13.795   5.338   3.514 -0.0199  0.0152 -0.2301
14190PP      PP24294   7.021   2.687   9.941 -0.1054 -0.0110 -0.3000
14191PP      PP24295   2.164   9.191  12.596  0.0261  0.0972  0.1752
14192PP      PP24296  11.687   8.935   0.110  0.3664 -0.1742  0.0479
14193PP      PP24297  14.018   6.932   9.751 -0.0311 -0.0062  0.1044
14194PP      PP24298  12.082  10.771   3.786 -0.2635 -0.1902  0.1271
14195PP      PP24299   5.070   0.744  12.514 -0.2186 -0.0812  0.3105
14196PP      PP24300  14.856  10.344  12.561  0.2659  0.0171  0.3011
14197PP      PP24301  10.790   7.742   8.166 -0.2692 -0.1666  0.0898
14198PP      PP24302   7.178  10.246  11.380  0.3277  0.1364 -0.2446
14199PP      PP24303  12.651   2.815  10.985  0.3979  0.2875 -0.1978
14200PP      PP24304  15.741   4.135  11.233  0.3572 -0.0367 -0.1532
14201PP      PP24305   7.516  10.422  11.093 -0.0525  0.1585  0.0418
14202PP      PP24306   8.448   6.997   2.976 -0.0783 -0.2715 -0.4108
14203PP      PP24307   9.956  10.441   8.844  0.0467  0.2253 -0.0668
14204PP      PP24308   5.169   6.797  11.376 -0.3038  0.2226 -0.0578
14205PP      PP24309  12.650   3.250  12.747  0.1631  0.1041 -0.1302
14206PP      PP24310  15.167  15.816   3.024 -0.0033  0.2088  0.0161
14207PP      PP24311  15.666  13.147   8.672 -0.0326 -0.2171 -0.1943
14208PP      PP24312   2.095   8.817   0.610  0.0755  0.0195 -0.0923
14209PP      PP24313  13.127   4.028   1.531 -0.1974 -0.0421  0.1479
14210PP      PP24314   0.559   6.248  12.753 -0.0591  0.1976 -0.3377
14211PP      PP24315   3.424  15.210  13.167  0.1626  0.1477  0.0168
14212PP      PP24316   3.877  15.266  11.210  0.1590 -0.2816 -0.1500
14213PP      PP24317  14.491   9.914   1.938 -0.0889  0.1159 -0.0475
14214PP      PP24318  12.560  11.485  12.022  0.0307  0.0289 -0.0352
14215PP      PP24319   6.245   3.722   1.123 -0.0961 -0.1118  0.0369
14216PP      PP24320  15.080   2.243  13.210 -0.0293 -0.0504  0.0462
14217PP      PP24321   9.491   1.694   0.474  0.0812 -0.3749  0.3417
14218PP      PP24322  15.694   2.177   1.014  0.0738 -0.1111  0.0257
14219PP      PP24323  13.990   3.099   0.189  0.1074  0.2241 -0.4329
14220PP      PP24324   0.407   5.129   1.116 -0.2261  0.0772 -0.0864
14221PP      PP24325  13.860   1.760  12.050 -0.2429 -0.0478 -0.1664
14222PP      PP24326   9.777   4.476   0.114  0.1879 -0.2348 -0.2152
14223PP      PP24327   9.494  11.278  11.324  0.0130 -0.1570  0.0908
14224PP      PP24328   8.183   1.429  11.984 -0.1939 -0.0902  0.0897
14225PP      PP24329   0.242  13.955  10.702  0.0118 -0.0318  0.0164
14226PP      PP24330   4.591   3.416  10.898 -0.0172 -0.0756  0.2599
14227PP      PP24331   2.497   1.528   1.683  0.0471 -0.1901 -0.2410
14228PP      PP24332   3.665   8.692   1.893  0.1669  0.0184  0.1784
14229PP      PP24333   9.311  15.535  12.652 -0.0510  0.2721  0.1788
14230PP      PP24334   5.591  12.208   4.495 -0.2103  0.1247  0.0667
14231PP      PP24335   1.602   9.000  11.331  0.2342 -0.0031  0.1114
14232PP      PP24336   8.776  13.766   4.074  0.0674 -0.2164 -0.1250
14233PP      PP24337  10.858   4.916   4.482 -0.0586  0.0461 -0.1109
14234PP      PP24338   8.777  10.313  12.048  0.0427 -0.2982  0.0037
14235PP      PP24339  14.380   1.319   1.621  0.0095 -0.1509 -0.4895
14236PP      PP24340  13.649  14.869  13.075 -0.1218 -0.0754 -0.1986
14237PP      PP24341  10.008  13.165   1.706 -0.0170  0.2692  0.1693
14238PP      PP24342   6.101  13.679   2.258 -0.1699 -0.2111  0.1017
14239PP      PP24343  10.819  15.400   2.820 -0.0664 -0.0124 -0.0980
14240PP      PP24344   8.500   4.406   9.039  0.0747 -0.0735 -0.1979
14241PP      PP24345   3.437  10.845   1.902  0.0437  0.2113  0.3733
14242PP      PP24346   7.059   1.555   8.586 -0.0306 -0.4485 -0.1695
14243PP      PP24347  12.676   5.730  12.206 -0.0163 -0.0250 -0.0325
14244PP      PP24348   9.037   4.141   1.887  0.0326 -0.0505 -0.0832
14245PP      PP24349  13.789  10.249   3.814 -0.1688  0.1559 -0.1133
14246PP      PP24350  15.633   2.482   0.588 -0.1875 -0.1129  0.4010
14247PP      PP24351   4.306  14.970  12.964 -0.2166 -0.1844  0.0841
14248PP      PP24352   6.128   0.960   4.207  0.0329 -0.0914  0.3156
14249PP      PP24353   2.863   4.387   1.833  0.1098  0.1289  0.0524
14250PP      PP24354  12.409  12.538  11.394 -0.2655 -0.1547  0.4316
14251PP      PP24355   7.570   4.073   3.092  0.0648 -0.1986 -0.0358
14252PP      PP24356   2.619   1.497   1.081  0.1901 -0.1676 -0.0627
14253PP      PP24357   9.734   0.833   9.765 -0.2201  0.1250  0.0557
14254PP      PP24358  13.437   6.299  11.093  0.1855  0.1488  0.0734
14255PP      PP24359  11.946  10.505   0.439  0.1058  0.0778  0.3054
14256PP      PP24360  14.456   8.599   4.723 -0.1769 -0.0833 -0.0223
14257PP      PP24361  10.564   0.804   9.837  0.3165 -0.2099  0.1455
14258PP      PP24362  10.079   0.175  10.373 -0.4392  0.0902  0.2247
14259PP      PP24363   7.759   9.943   9.492  0.2348  0.3383 -0.1741
14260PP      PP24364   8.928   3.361   2.111  0.0022 -0.0578 -0.0819
14261PP      PP24365   4.612   0.564   2.342  0.0081 -0.1609  0.1555
14262PP      PP24366   0.704   1.790   1.212  0.2119  0.1097  0.1935
14263PP      PP24367   0.648   2.271   2.135 -0.0759  0.0848 -0.0672
14264PP      PP24368   3.568   7.632   3.173 -0.0253 -0.3922 -0.2547
14265PP      PP24369  15.390  15.200   0.542  0.3488 -0.1633  0.0647
14266PP      PP24370   1.383  13.803  11.805 -0.2703 -0.1979 -0.0139
14267PP      PP24371  11.276  11.565  10.843 -0.2322 -0.1308  0.2613
14268PP      PP24372  11.585  10.669  10.895 -0.1662 -0.3984 -0.1683
14269PP      PP24373   2.804   6.579   1.007 -0.3617 -0.0658 -0.0118
14270PP      PP24374   0.600   9.681   2.145  0.1115  0.2067 -0.1164
14271PP      PP24375  14.434   7.665  12.988 -0.0135  0.1558  0.0599
14272PP      PP24376  10.942  10.799   9.448  0.0581  0.1449 -0.0823
14273PP      PP24377   3.920  13.420  11.625 -0.3695 -0.0624  0.0119
14274PP      PP24378  11.648   8.035   1.587 -0.3559 -0.1475  0.0104
14275PP      PP24379  12.982   9.377  11.547  0.0454  0.4231  0.0389
14276PP      PP24380   7.065   5.594   2.365 -0.2750 -0.4113  0.3565
14277PP      PP24381   5.651   1.576  11.558 -0.0590 -0.1501  0.2071
14278PP      PP24382   0.698   8.193   3.393 -0.0785 -0.0214 -0.4171
14279PP      PP24383   8.795   7.338  12.293  0.0363 -0.0731 -0.1258
14280PP      PP24384   2.277  11.816  10.212  0.0370 -0.2799 -0.1626
14281PP      PP24385   2.170   6.755  10.791 -0.0282 -0.1595  0.0201
14282PP      PP24386  12.961   4.743   4.929 -0.0296 -0.1480 -0.2294
14283PP      PP24387   1.218   3.741   2.619  0.0785  0.1779 -0.1241
14284PP      PP24388   7.002   6.179   9.396  0.0280 -0.1845 -0.1443
14285PP      PP24389  12.493  15.756  11.289 -0.0824 -0.3019  0.0806
14286PP      PP24390  13.022   1.537   4.395  0.3100  0.0561  0.0257
14287PP      PP24391   0.671   5.624  12.602  0.3559  0.1306 -0.2673
14288PP      PP24392   5.828  10.965  11.822  0.0032  0.2729  0.0332
14289PP      PP24393  11.464   3.704  12.437 -0.2041  0.0204  0.0916
14290PP      PP24394  15.498  11.518  10.373  0.1485 -0.2969 -0.1641
14291PP      PP24395   3.545  15.340  11.573  0.0932 -0.0588  0.2931
14292PP      PP24396   3.756   2.358   2.305  0.1316 -0.1525 -0.0402
14293PP      PP24397   1.125  12.529  12.068  0.3977 -0.1234  0.1931
14294PP      PP24398   4.137  12.390  12.435 -0.0496  0.1100  0.2715
14295PP      PP24399   8.412  12.007   2.546 -0.0293 -0.0030 -0.1269
14296PP      PP24400  13.800   3.493  12.887  0.1774  0.1560  0.0116
14297PP      PP24401   2.824   7.032   1.917  0.0449 -0.1068  0.1345
14298PP      PP24402   6.988   6.658   3.561 -0.1516  0.0091  0.0415
14299PP      PP24403  10.920  15.427   3.318 -0.0482  0.1090  0.2544
14300PP      PP24404   0.920   8.629   3.008 -0.0355 -0.0879  0.2997
14301PP      PP24405  10.332   7.159  12.486  0.2557 -0.0835  0.1410
14302PP      PP24406   4.099   8.491  11.371 -0.0572  0.2492  0.0157
14303PP      PP24407   0.277  15.319   3.421  0.1452 -0.3953  0.1667
14304PP      PP24408  14.719   6.590   4.265  0.1577  0.3435 -0.1342
14305PP      PP24409   4.577  14.469   0.669 -0.1084 -0.2966 -0.0432
14306PP      PP24410   5.362  10.886   3.211 -0.0755 -0.1407  0.1195
14307PP      PP24411  12.011  10.570   9.622 -0.2387  0.1251 -0.1523
14308PP      PP24412  11.234   7.159   2.678  0.0018  0.0064  0.1331
14309PP      PP24413   6.706  10.645   4.683  0.1079  0.2893 -0.1260
14310PP      PP24414   5.198   6.711  10.172 -0.1149 -0.0554 -0.4849
14311PP      PP24415   3.900  14.325   1.693 -0.0412 -0.0339 -0.1618
14312PP      PP24416  13.615   2.164   4.606  0.1987  0.3832 -0.2030
14313PP      PP24417   7.040   7.485   3.007 -0.0475  0.0553  0.2113
14314PP      PP24418   2.262   3.240   3.843 -0.0822 -0.1809 -0.0301
14315PP      PP24419  14.150   7.192  12.128  0.0437  0.1187 -0.2106
14316PP      PP24420   3.721   3.386  10.735  0.0403  0.1103 -0.3195
14317PP      PP24421  10.504   7.019   2.509 -0.1719  0.1256  0.3376
14318PP      PP24422   2.759  13.563   1.231  0.2160  0.1535 -0.0825
14319PP      PP24423  10.775  12.604  13.003 -0.3364  0.0348 -0.1477
14320PP      PP24424   2.959   8.877  11.105 -0.1521  0.0048 -0.2186
14321PP      PP24425  15.847   4.958  11.467 -0.0696  0.0508 -0.0208
14322PP      PP24426  11.458  10.397   1.028 -0.0206  0.0130 -0.0058
14323PP      PP24427   9.500   1.824   3.679 -0.3021  0.3152  0.1298
14324PP      PP24428   0.604   3.628  12.504 -0.0155 -0.0213 -0.0206
14325PP      PP24429   2.074   3.250  12.558  0.0553  0.2922  0.0468
14326PP      PP24430   1.221   9.014   5.182 -0.0246  0.0349  0.0822
14327PP      PP24431   2.711   2.916  10.712 -0.2160 -0.2407 -0.1836
14328PP      PP24432   9.618   7.527   2.307  0.1160 -0.2438  0.0134
14329PP      PP24433  15.296  12.988  11.122 -0.1726  0.0733 -0.1335
14330PP      PP24434   6.108   2.874   1.312  0.0712  0.1812  0.0164
14331PP      PP24435   2.181   6.620   1.740 -0.0844  0.1447 -0.0201
14332PP      PP24436   5.511  13.930   0.125 -0.0867 -0.1682 -0.2118
14333PP      PP24437   7.389   7.998  11.483  0.3770 -0.2074  0.0158
14334PP      PP24438   4.415   7.618  11.070 -0.2469 -0.1656 -0.1031
14335PP      PP24439   0.841   8.456   4.554  0.0680  0.2717 -0.2141
14336PP      PP24440  11.110   3.551  10.485 -0.0687  0.1099 -0.1935
14337PP      PP24441  11.986   1.396  12.619  0.3446 -0.1732  0.0265
14338PP      PP24442   7.963   7.497   4.368  0.0082 -0.2641  0.0291
14339PP      PP24443  14.586  13.544   2.496 -0.2208  0.2256  0.2240
14340PP      PP24444   5.578  14.686   8.978 -0.2752  0.0538  0.3703
14341PP      PP24445  12.547   1.216   9.058 -0.1471  0.0592 -0.1835
14342PP      PP24446   5.664   5.755  10.072  0.0353  0.0542  0.1414
14343PP      PP24447  13.502   7.429   0.414 -0.0292  0.1599  0.1909
14344PP      PP24448   1.869  13.378   4.067 -0.3770 -0.0258  0.1682
14345PP      PP24449   3.527  13.578  11.273  0.0473  0.0551  0.1162
14346PP      PP24450  14.189   5.465   8.795 -0.0726 -0.1840 -0.1127
14347PP      PP24451  10.642   5.866   2.119  0.2316  0.0466  0.3707
14348PP      PP24452   8.897   4.278  13.238  0.0067 -0.3925  0.2757
14349PP      PP24453   3.125   3.780   0.179 -0.0723  0.2281 -0.1478
14350PP      PP24454  11.246   0.243   2.487 -0.2532  0.1161 -0.3293
14351PP      PP24455   3.121   6.969   1.244 -0.2798  0.2930  0.1377
14352PP      PP24456   0.265   3.143   9.113  0.0215 -0.0611 -0.1799
14353PP      PP24457  10.864   3.545   1.569  0.0021  0.3609  0.1683
14354PP      PP24458  12.439   6.321  10.453 -0.3554 -0.0024 -0.1231
14355PP      PP24459   8.976  14.213   1.356  0.2269 -0.2361 -0.1481
14356PP      PP24460   8.597  11.233  13.248 -0.0999 -0.0024 -0.2850
14357PP      PP24461   0.868   2.616  13.442  0.0622 -0.0007  0.0483
14358PP      PP24462  14.220   9.793   9.223 -0.0449  0.1917 -0.3820
14359PP      PP24463   3.916   1.941   3.702 -0.0555  0.0470  0.0358
14360PP      PP24464   9.216   1.454   0.831 -0.0497  0.1081  0.1116
14361PP      PP24465   1.035  13.742   8.803 -0.2525  0.2424  0.1824
14362PP      PP24466  14.313   9.412  10.686  0.2250 -0.0842 -0.0725
14363PP      PP24467   5.599   2.038  13.262  0.2224  0.5055  0.2750
14364PP      PP24468   5.044   3.580   9.195  0.1660  0.2060 -0.0872
14365PP      PP24469   7.099  13.747  13.285 -0.2909  0.0741  0.2293
14366PP      PP24470   6.258   4.853  10.025  0.0058  0.2160 -0.0768
14367PP      PP24471  12.117   3.240   2.160  0.1204 -0.0709 -0.1262
14368PP      PP24472  10.296  13.877  13.355  0.0921  0.1682  0.5230
14369PP      PP24473   0.398  10.478   2.567  0.1605 -0.2260 -0.0128
14370PP      PP24474   7.592  11.254   9.478  0.2153  0.1595  0.1725
14371PP      PP24475   8.982  12.848   3.786 -0.1097 -0.0062  0.1164
14372PP      PP24476  12.879   3.132  13.239  0.4676 -0.0841 -0.0873
14373PP      PP24477  15.220   9.355  10.934  0.0896 -0.5415 -0.0953
14374PP      PP24478   7.618   9.134   4.835  0.0991 -0.3153  0.0382
14375PP      PP24479  13.941   9.046  13.284 -0.1427 -0.2088  0.0322
14376PP      PP24480   4.229   0.912  11.867 -0.0889 -0.2647 -0.2070
14377PP      PP24481   2.267   8.286   5.084 -0.2495  0.0641  0.2267
14378PP      PP24482   1.447   2.254   1.039 -0.0822  0.3708 -0.0308
14379PP      PP24483  14.818   8.166   3.338 -0.1295 -0.2183  0.3263
14380PP      PP24484   1.949   4.238   4.251  0.1959  0.1741 -0.0335
14381PP      PP24485   8.892   9.086  13.179 -0.0575  0.0568  0.1664
14382PP      PP24486   5.490   5.366   1.433  0.0261 -0.0758  0.2768
14383PP      PP24487  12.362   8.417   2.626 -0.2763  0.6596 -0.2442
14384PP      PP24488   3.474  11.183   3.290 -0.1315  0.1646  0.1379
14385PP      PP24489   6.043   7.222   2.846 -0.1349 -0.1351  0.2559
14386PP      PP24490  11.208   7.637  12.296 -0.3326  0.0065 -0.2266
14387PP      PP24491  14.689   4.486   4.282  0.2146 -0.2792  0.0239
14388PP      PP24492   7.445  15.187   3.920 -0.0991  0.0679 -0.2457
14389PP      PP24493   3.566   9.185  12.112 -0.0499 -0.1216  0.1453
14390PP      PP24494  10.317   0.317  12.035 -0.1299 -0.0671  0.3663
14391PP      PP24495   2.985   1.835   2.931  0.0751 -0.0718  0.1744
14392PP      PP24496   8.208  10.162   1.124  0.0207  0.0494  0.0311
14393PP      PP24497   1.743   8.404   4.168  0.1388  0.4540  0.0742
14394PP      PP24498   1.735   4.073   9.713  0.1483 -0.0279 -0.2351
14395PP      PP24499   9.636  10.612   9.207 -0.1773  0.1361 -0.2781
14396PP      PP24500   4.920   1.663   3.792 -0.1359  0.0451 -0.1604
14397PP      PP24501  12.751  10.088   9.152 -0.1427  0.0311  0.0625
14398PP      PP24502   9.101   3.928   1.375 -0.0344  0.0428  0.2299
14399PP      PP24503   6.012   6.157   1.506  0.2051  0.0640 -0.0121
14400PP      PP24504   2.056   8.786   5.071  0.1380  0.2040  0.2322
14401PP      PP24505   4.957   3.807  12.822  0.2481 -0.0415 -0.1354
14402PP      PP24506  13.562  15.454  11.918 -0.3824  0.0785  0.1947
14403PP      PP24507  11.564   2.976   9.743 -0.0791  0.1936 -0.3000
14404PP      PP24508   2.572   5.360  12.556 -0.0012  0.0441 -0.3110
14405PP      PP24509   7.845   2.579   4.290 -0.0834 -0.2850 -0.1567
14406PP      PP24510   0.218   5.337   9.425 -0.0110  0.0753  0.0612
14407PP      PP24511  12.811   7.066   4.756 -0.1491 -0.0379  0.0503
14408PP      PP24512   9.320  11.746   9.643  0.3021  0.1811  0.0329
14409PP      PP24513   7.070   0.705  11.293 -0.0844  0.1632 -0.0411
14410PP      PP24514   0.701  12.909   9.236 -0.2409  0.1850 -0.2634
14411PP      PP24515   0.083  13.847   4.213  0.1356  0.0921  0.0040
14412PP      PP24516  13.112   1.374   0.048  0.0090  0.0595  0.4225
14413PP      PP24517  10.448   2.847   8.981 -0.1875  0.1476  0.2813
14414PP      PP24518   8.016   3.736  12.350 -0.1457 -0.1800 -0.0330
14415PP      PP24519   4.818   5.991  10.867 -0.1432  0.1449  0.1118
14416PP      PP24520  11.764   3.152   9.280 -0.0056 -0.3085 -0.5000
14417PP      PP24521   5.678   3.592   1.236 -0.1369 -0.2925  0.0336
14418PP      PP24522  11.022  11.528   9.408  0.0351 -0.2328  0.0567
14419PP      PP24523   9.671  15.884   1.469  0.0491 -0.0144 -0.2901
14420PP      PP24524  11.038   9.475   2.855  0.0298  0.1503 -0.1129
14421PP      PP24525  14.008   4.854  12.913 -0.0414 -0.3004 -0.1467
14422PP      PP24526  12.327  10.663   2.865 -0.0170  0.1677  0.1158
14423PP      PP24527  13.980   6.849   2.137  0.1534  0.0239  0.0279
14424PP      PP24528   6.312  13.314  13.168  0.0873  0.2508 -0.0737
14425PP      PP24529   3.594   0.989  10.151  0.0379 -0.2413  0.0254
14426PP      PP24530  12.116   8.232   1.732 -0.2280 -0.0363  0.0324
14427PP      PP24531  15.646   4.156   4.630 -0.3070 -0.0574 -0.0971
14428PP      PP24532   2.097   5.629   0.742 -0.2388 -0.1295  0.3491
14429PP      PP24533   3.488   3.123   8.885 -0.0258  0.3433 -0.0238
14430PP      PP24534   3.627  12.703   2.852 -0.0318  0.2921 -0.3784
14431PP      PP24535   7.857  12.242  13.216  0.2844  0.2383 -0.1923
14432PP      PP24536   3.765   4.210   2.395  0.2488 -0.2793  0.0517
14433PP      PP24537   1.044   6.780   3.520  0.3625 -0.3128  0.0633
14434PP      PP24538   6.138  12.531   9.894  0.3710 -0.0796  0.3280
14435PP      PP24539   0.547   6.558   0.876 -0.1116  0.0429 -0.0270
14436PP      PP24540   4.672  12.105  10.768  0.2759 -0.0372  0.2337
14437PP      PP24541   3.787  14.819   1.405  0.0395 -0.0135 -0.1010
14438PP      PP24542  11.059   8.494   9.736  0.1295  0.0033  0.2529
14439PP      PP24543  14.332   0.462  11.432 -0.0543 -0.0492 -0.2541
14440PP      PP24544   1.447   4.439   9.729  0.3099 -0.0213  0.3670
14441PP      PP24545   5.456   3.889   9.082  0.2464 -0.0381 -0.1588
14442PP      PP24546  10.449   1.869  13.259 -0.2699 -0.0186 -0.2900
14443PP      PP24547  10.811   6.211  10.739  0.0390 -0.0636  0.1688
14444PP      PP24548   2.925   8.984   1.364  0.1715  0.0603  0.0530
14445PP      PP24549   9.569  12.582   0.256 -0.0059  0.0284  0.0075
14446PP      PP24550  12.142  15.563   9.141  0.0198  0.1343  0.1144
14447PP      PP24551   2.447  11.192  12.298  0.2126  0.0449  0.0713
14448PP      PP24552  15.590   1.886  12.350  0.0191 -0.0953 -0.2098
14449PP      PP24553   5.312  14.536  11.493  0.3342 -0.3239  0.1654
14450PP      PP24554  13.806  10.191  10.441 -0.1492 -0.0627 -0.0169
14451PP      PP24555  12.309  13.793   2.874 -0.1112  0.2362 -0.0173
14452PP      PP24556   5.938   0.364   1.073  0.2770  0.1698  0.1779
14453PP      PP24557  13.404   7.667  12.655  0.1575 -0.0331  0.1947
14454PP      PP24558   7.164   0.198   0.936 -0.0965 -0.0105  0.2653
14455PP      PP24559   6.134  14.234   2.213 -0.0588  0.1515  0.1778
14456PP      PP24560   1.979  14.506  12.709  0.0330  0.0670 -0.3880
14457PP      PP24561   9.978  10.808  10.663  0.0647  0.0061  0.0349
14458PP      PP24562   7.699   5.787   3.064  0.0004  0.2679  0.2079
14459PP      PP24563   3.080   7.545   0.342  0.2953  0.3382  0.0725
14460PP      PP24564  14.837   3.374  11.563  0.1136 -0.0664 -0.1318
14461PP      PP24565  10.833   9.432   3.775 -0.0298  0.2249  0.0796
14462PP      PP24566   9.698   2.152   9.963  0.1873 -0.0710  0.2047
14463PP      PP24567  12.416   8.102  13.340  0.0003 -0.0758 -0.0159
14464PP      PP24568  14.190   6.829   3.432  0.0458  0.2417  0.2164
14465PP      PP24569   3.112  12.009  12.972  0.1338  0.0153 -0.2600
14466PP      PP24570   9.160   1.427  10.904  0.2144 -0.2169 -0.0703
14467PP      PP24571   7.904   5.871  11.012 -0.5643  0.0080 -0.0642
14468PP      PP24572   3.795   9.094  12.653 -0.1546  0.0161 -0.1674
14469PP      PP24573  15.842   2.196   9.598  0.0021 -0.4531  0.1540
14470PP      PP24574  11.670   1.295  10.720  0.0182  0.2370  0.1414
14471PP      PP24575   9.180  14.217   3.519  0.0458 -0.0772  0.0396
14472PP      PP24576  12.507   5.056  13.201 -0.0586  0.3621  0.0255
14473PP      PP24577   1.916  10.172  10.501  0.1760  0.2736 -0.0300
14474PP      PP24578   6.703  11.403  13.118  0.1314  0.3760  0.4846
14475PP      PP24579   6.061   0.543   8.858 -0.1102  0.1499  0.2191
14476PP      PP24580   4.839   1.032   4.229 -0.2243 -0.2738 -0.1924
14477PP      PP24581  12.974   7.255  10.803  0.0183  0.1438  0.0878
14478PP      PP24582   4.925   9.379   3.206  0.0406 -0.0048 -0.0298
14479PP      PP24583   1.775  15.849  12.699  0.1852 -0.3137  0.0702
14480PP      PP24584  15.861  13.814  10.054 -0.1611  0.1018  0.3643
14481PP      PP24585  15.235   2.042   3.212  0.1124 -0.2327  0.0096
14482PP      PP24586  13.425  13.517   2.372  0.1269  0.1018  0.2177
14483PP      PP24587  11.639   6.091  12.791 -0.0023 -0.1290  0.1387
14484PP      PP24588   2.800   1.434  12.994 -0.0002 -0.2036 -0.0815
14485PP      PP24589   6.146   3.995   9.977 -0.0109 -0.3002  0.0435
14486PP      PP24590  15.145  11.353   3.101 -0.1967  0.1085 -0.1411
14487PP      PP24591   0.503   7.123  11.410  0.3444 -0.2062 -0.2228
14488PP      PP24592  13.287   9.982   1.571 -0.2233  0.0733  0.1027
14489PP      PP24593   8.177   6.651   2.783  0.3061 -0.4185  0.1937
14490PP      PP24594   1.413   2.470   4.234 -0.2277 -0.1335 -0.0662
14491PP      PP24595  15.421   3.262   4.347  0.0505  0.0472 -0.1777
14492PP      PP24596  15.070  12.938   2.306 -0.0060  0.0738  0.0553
14493PP      PP24597   5.756  12.850  11.111  0.2378  0.1218  0.0182
14494PP      PP24598   0.625   9.596   0.960  0.0700 -0.1194 -0.0572
14495PP      PP24599   1.763  13.028  12.792  0.2014 -0.2847  0.1718
14496PP      PP24600   2.615  14.604   0.669  0.2032 -0.0030  0.0114
14497PP      PP24601   5.061   4.294  10.498 -0.4004 -0.0618 -0.0642
14498PP      PP24602   7.995   0.662   2.649 -0.0497 -0.2376 -0.0705
14499PP      PP24603   1.092  10.825   1.144  0.0599 -0.0545  0.0898
14500PP      PP24604   4.830   5.156   2.469  0.3237 -0.0958 -0.0936
14501PP      PP24605  15.638   2.412   3.173  0.0201  0.0906 -0.1053
14502PP      PP24606  12.583   2.330  11.511  0.0201  0.0498  0.0089
14503PP      PP24607   8.094   0.432  12.625 -0.1430 -0.3245  0.2404
14504PP      PP24608   7.800   6.603  11.762 -0.0160  0.2030 -0.0120
14505PP      PP24609  10.170   2.120   9.689 -0.0096  0.1754  0.1529
14506PP      PP24610  14.106   3.614   2.035  0.4219 -0.0981 -0.0750
14507PP      PP24611   8.590   5.701  12.820 -0.3019  0.0927  0.0032
14508PP      PP24612   2.589   7.424  10.818  0.2054 -0.1394  0.1710
14509PP      PP24613   6.369   0.267   9.354 -0.4768  0.3995 -0.1973
14510PP      PP24614   1.063  10.370  10.796 -0.0190  0.2663  0.1043
14511PP      PP24615   5.148   7.073   1.275  0.3916 -0.0606  0.1511
14512PP      PP24616   4.774   2.855   1.150 -0.0519  0.2245 -0.0281
14513PP      PP24617   7.778   6.302   1.075 -0.3388  0.2922  0.0825
14514PP      PP24618   8.588   8.646   9.121 -0.0164  0.3373 -0.2026
14515PP      PP24619   5.395   1.190  11.295  0.1760 -0.0210  0.0669
14516PP      PP24620   6.574  11.557   0.177 -0.2144 -0.0946 -0.2544
14517PP      PP24621   3.839   8.018   3.748 -0.1500  0.1013 -0.0726
14518PP      PP24622   5.457   5.297   3.539 -0.3342 -0.0518  0.2408
14519PP      PP24623   8.684  15.193   2.795  0.0049 -0.0040 -0.0387
14520PP      PP24624   3.957   9.142   3.418 -0.0724 -0.0014  0.2662
14521PP      PP24625  13.427   4.067  11.664  0.0903  0.0885 -0.1140
14522PP      PP24626  14.176   4.778  12.330  0.0935 -0.1389  0.2518
14523PP      PP24627  14.562   3.131   4.355  0.1777  0.2616  0.1826
14524PP      PP24628   5.557   3.997   4.676  0.1028 -0.0134  0.0838
14525PP      PP24629   6.495   8.158  13.201 -0.0059 -0.0477 -0.2430
14526PP      PP24630  11.657  15.602  12.586 -0.3037 -0.0217  0.0791
14527PP      PP24631   7.131   6.261   3.110 -0.2173 -0.0458 -0.0086
14528PP      PP24632   6.405   9.495  13.341 -0.1616 -0.1790  0.1969
14529PP      PP24633   1.582  12.891  13.312  0.0143 -0.0415 -0.1158
14530PP      PP24634   5.592   7.353  11.430  0.0322 -0.2437  0.0285
14531PP      PP24635   1.796   0.309   3.108 -0.0808 -0.2673 -0.0616
14532PP      PP24636  13.883   0.606  12.952 -0.1820 -0.1554 -0.1934
14533PP      PP24637   6.952   2.247  12.512 -0.2440 -0.2647 -0.0676
14534PP      PP24638  10.566   5.757  12.029 -0.0343  0.1051  0.0459
14535PP      PP24639   8.996   9.752   1.103  0.0465 -0.0916  0.0422
14536PP      PP24640  12.317  10.750  11.638 -0.0609  0.0492 -0.0163
14537PP      PP24641   8.409   1.787  10.984 -0.0215  0.2385  0.2026
14538PP      PP24642  12.150  13.278  12.704 -0.0432  0.0636 -0.2094
14539PP      PP24643   5.741   6.767   2.748  0.2032  0.0109  0.0831
14540PP      PP24644   6.507   1.114   9.413 -0.1746 -0.2989 -0.1053
14541PP      PP24645   0.483  14.926  10.810  0.3992 -0.1509  0.1142
14542PP      PP24646   1.371   3.083  10.751 -0.0243  0.2256  0.2079
14543PP      PP24647   5.067  13.319   3.544  0.0836  0.2620  0.0455
14544PP      PP24648  15.607  15.397   1.359  0.3776  0.3144  0.0248
14545PP      PP24649  13.271   6.529  12.879  0.0215 -0.4484 -0.4440
14546PP      PP24650  12.687   6.386  10.051 -0.1787 -0.3296  0.0523
14547PP      PP24651   4.191   0.692   2.546 -0.2410  0.0219 -0.1274
14548PP      PP24652   6.426   1.910   3.179 -0.0420  0.0801 -0.0925
14549PP      PP24653  14.410  15.387  13.307  0.0561  0.0756  0.1845
14550PP      PP24654  13.910   5.649   9.420  0.3191  0.1697  0.4516
14551PP      PP24655   6.211   5.200  11.105  0.2888  0.0511 -0.0368
14552PP      PP24656   9.989  12.571   4.034 -0.1661  0.1990 -0.0156
14553PP      PP24657   2.313   9.433   0.643 -0.0980 -0.1813 -0.1199
14554PP      PP24658   2.577   1.622   2.659  0.0060  0.3130  0.0365
14555PP      PP24659   2.033   8.024   1.302  0.0959  0.1148  0.2115
14556PP      PP24660   2.576   4.312  12.949 -0.1860  0.1453  0.1749
14557PP      PP24661  13.112   2.474   0.246 -0.3826  0.1443 -0.1375
14558PP      PP24662   2.357   4.047   8.888  0.1513  0.0010 -0.0624
14559PP      PP24663  10.777  11.125   1.795  0.1516 -0.0761 -0.1966
14560PP      PP24664   0.439   6.230  11.809  0.0036 -0.0567 -0.1001
14561PP      PP24665  14.746   0.616  10.771 -0.1402  0.1232  0.1648
14562PP      PP24666   6.676   6.871   1.320 -0.3037 -0.2005 -0.0449
14563PP      PP24667   0.915  13.363  10.522  0.3279 -0.1424 -0.4168
14564PP      PP24668   0.203   6.760   3.027 -0.0779 -0.2037 -0.0765
14565PP      PP24669   2.815   5.606   3.251 -0.1493  0.1225 -0.0065
14566PP      PP24670   0.855   9.966   2.405  0.2100 -0.1634  0.1107
14567PP      PP24671   2.644   1.190   9.144 -0.0250 -0.2244  0.2374
14568PP      PP24672   7.028  10.869   4.032 -0.1486 -0.0487  0.1128
14569PP      PP24673   5.004   4.660   2.635 -0.4205 -0.0413 -0.1810
14570PP      PP24674   9.662   9.481  13.328  0.0028  0.2466  0.0616
14571PP      PP24675  13.997   7.328   0.428 -0.1955 -0.0650 -0.1308
14572PP      PP24676  13.452  15.637  13.191 -0.2822 -0.4343  0.3916
14573PP      PP24677   1.268   3.505  13.161 -0.0259  0.0320 -0.4243
14574PP      PP24678  14.065   6.452   9.782  0.4199 -0.0217 -0.0113
14575PP      PP24679   5.162  14.655  10.033  0.2020  0.0652 -0.1582
14576PP      PP24680   5.428   1.318   4.484  0.0290  0.0796 -0.2039
14577PP      PP24681   5.226   5.494   2.752 -0.0009  0.3380 -0.3371
14578PP      PP24682  13.526   9.288   1.783 -0.1544 -0.0627 -0.1291
14579PP      PP24683  12.410   3.073   5.112 -0.1529 -0.0394 -0.0640
14580PP      PP24684   8.423  14.359  12.937 -0.3834 -0.1536 -0.1004
14581PP      PP24685  11.110   3.221   3.621 -0.1615  0.0426  0.0791
14582PP      PP24686   0.405   0.435   4.691 -0.3995 -0.1928 -0.1344
14583PP      PP24687   1.841  11.595   0.097  0.0341  0.0452 -0.0375
14584PP      PP24688  11.013   4.151  12.224  0.2461 -0.2877  0.2791
14585PP      PP24689   3.716  14.884   2.749 -0.0974 -0.1477  0.1375
14586PP      PP24690  14.548   8.518   0.399  0.0034  0.0794 -0.0551
14587PP      PP24691   7.641  10.179  10.645 -0.2911 -0.0623 -0.2722
14588PP      PP24692  13.154   3.933   8.535  0.1271  0.2037 -0.1238
14589PP      PP24693   9.996  15.655  12.370 -0.0789  0.1813 -0.0862
14590PP      PP24694   1.445  10.225   4.931 -0.2577 -0.0776 -0.1378
14591PP      PP24695  13.960   6.871   9.274  0.0899 -0.1790 -0.2860
14592PP      PP24696   1.753  15.473  10.872  0.1289  0.1189  0.0314
14593PP      PP24697   1.202   5.173   4.155  0.1334 -0.1012 -0.0643
14594PP      PP24698   0.683  10.595  11.841  0.0079  0.0404 -0.1107
14595PP      PP24699   9.303   8.701  12.063 -0.1344  0.0662 -0.0987
14596PP      PP24700   3.562  11.344  10.797 -0.0198 -0.1894 -0.0416
14597PP      PP24701   3.509  14.630  13.347  0.0161  0.0149 -0.0645
14598PP      PP24702   4.487   2.764   0.600  0.1926  0.1346 -0.0022
14599PP      PP24703  12.896   3.562  13.050 -0.0064  0.0464  0.0093
14600PP      PP24704   7.366   9.587   9.152 -0.4420 -0.1301  0.0074
14601PP      PP24705  15.683  13.318  10.115 -0.0403 -0.1620 -0.1121
14602PP      PP24706  13.340   5.803   2.125  0.0438 -0.0088 -0.1489
14603PP      PP24707   4.276  15.092   0.423 -0.1524  0.2845  0.4453
14604PP      PP24708   7.533  14.722   2.184 -0.0276 -0.1273 -0.1074
14605PP      PP24709   8.208  13.943   9.053  0.2311 -0.0964  0.0243
14606PP      PP24710   5.126  13.823  12.745 -0.2699  0.0040  0.0410
14607PP      PP24711   4.659   4.529   3.123 -0.0310  0.0249 -0.2082
14608PP      PP24712   2.064   1.836  11.999 -0.1911  0.0096 -0.1303
14609PP      PP24713   5.148   6.129  12.625  0.4045  0.0733 -0.0895
14610PP      PP24714   3.462  12.043  10.887  0.1496  0.1457 -0.1886
14611PP      PP24715  13.984   8.391  11.538 -0.1027 -0.2336 -0.3665
14612PP      PP24716   1.337  15.722   2.129 -0.0971 -0.0598  0.0078
14613PP      PP24717   0.882  13.240   1.793 -0.0129  0.2141  0.0098
14614PP      PP24718  11.489   3.613   2.358 -0.1500  0.2614  0.0967
14615PP      PP24719   2.436  14.018   1.172  0.1593 -0.2894 -0.0278
14616PP      PP24720   8.469   8.402   3.319  0.0219 -0.1625 -0.0890
14617PP      PP24721  15.658   1.240  11.162  0.0154 -0.0636  0.1375
14618PP      PP24722   9.962  13.361  11.695  0.3868  0.2934  0.1883
14619PP      PP24723   3.292   8.699   2.673 -0.1191  0.0213 -0.1664
14620PP      PP24724  10.788  11.111   2.706  0.0377 -0.0570  0.0570
14621PP      PP24725   5.889   1.650   9.792 -0.2378  0.0737  0.0271
14622PP      PP24726   0.618   9.904  13.422 -0.3298  0.0130 -0.0530
14623PP      PP24727   0.017  12.531   0.340 -0.2858 -0.3406 -0.2881
14624PP      PP24728  14.010  12.311  13.389 -0.2782  0.0055 -0.0663
14625PP      PP24729   3.794   8.068   3.245  0.0724  0.0217  0.0709
14626PP      PP24730  12.722  15.446   3.920 -0.1386  0.0625  0.1231
14627PP      PP24731   2.539   3.244  10.261 -0.1405  0.0385  0.2487
14628PP      PP24732   7.259   4.677  10.131 -0.0530  0.2142  0.2159
14629PP      PP24733  10.759  10.411  10.133 -0.0096 -0.1297 -0.1361
14630PP      PP24734  15.703   6.912  11.109  0.0737 -0.0675 -0.0353
14631PP      PP24735   4.846   2.423   1.706 -0.0775  0.3590 -0.0979
14632PP      PP24736   3.415  13.860  12.823  0.2854 -0.0330 -0.2899
14633PP      PP24737   2.136   7.481   1.025 -0.0713  0.2677 -0.0314
14634PP      PP24738  12.846   1.351   8.702 -0.0347  0.2425 -0.0347
14635PP      PP24739   9.665   6.228   2.687 -0.2061  0.0007  0.1305
14636PP      PP24740   7.191  13.320   2.325 -0.2442  0.1098  0.0872
14637PP      PP24741  15.676  15.747   2.763 -0.0301  0.1104 -0.0384
14638PP      PP24742   6.910   8.155   1.826  0.0525  0.0426  0.0745
14639PP      PP24743   6.933  12.870   2.110  0.1846 -0.0835  0.0817
14640PP      PP24744   0.905  12.517   8.911 -0.1809  0.2899 -0.1079
14641PP      PP24745   7.430   0.626  10.507 -0.3303 -0.2201 -0.1972
14642PP      PP24746  11.449   4.687  11.332 -0.2898 -0.0184 -0.1617
14643PP      PP24747  14.583   9.660  10.068  0.0112 -0.1840 -0.0845
14644PP      PP24748  13.378   0.597  11.125  0.3738 -0.0745 -0.1758
14645PP      PP24749   9.340  13.718  11.229  0.1573 -0.0681  0.2385
14646PP      PP24750  12.080   9.122   1.668 -0.1690 -0.2466 -0.1807
14647PP      PP24751   8.172   5.162   2.480  0.3321  0.0662  0.3032
14648PP      PP24752   3.637   6.246  12.189 -0.1053  0.2298 -0.0231
14649PP      PP24753   8.040   7.411   1.525  0.0504 -0.0231  0.2656
14650PP      PP24754  15.692  11.325   9.841  0.0603 -0.0857  0.0630
14651PP      PP24755  14.704  11.022   1.277 -0.1166 -0.0543  0.0764
14652PP      PP24756   2.517   5.941   2.438 -0.2558  0.2346 -0.1660
14653PP      PP24757  15.886   4.783   0.632 -0.1200  0.3526  0.0019
14654PP      PP24758   0.383   3.263  12.089 -0.2004 -0.0828 -0.0042
14655PP      PP24759   5.194  13.826   4.468 -0.0281  0.0033 -0.0080
14656PP      PP24760   0.879   0.022   3.892 -0.0366  0.0597 -0.0541
14657PP      PP24761   1.928   3.329   3.461 -0.1601 -0.1419  0.1084
14658PP      PP24762   0.091   7.191   9.742  0.1841 -0.2137 -0.0264
14659PP      PP24763   5.081   4.368   2.194 -0.1489  0.0264  0.0469
14660PP      PP24764   9.884  11.873   0.956  0.1044  0.0457  0.1666
14661PP      PP24765  10.632   8.427  13.048  0.1634  0.1756 -0.0613
14662PP      PP24766   9.635   2.871   9.480  0.5659 -0.1563  0.0623
14663PP      PP24767   3.573   9.608   3.146  0.1110 -0.3249 -0.1965
14664PP      PP24768  15.825   3.709   0.804  0.0382 -0.1249  0.2074
14665PP      PP24769   7.252   1.725   9.874 -0.0654 -0.0828  0.1022
14666PP      PP24770   3.047  11.671  11.230  0.1451 -0.2375  0.0910
14667PP      PP24771  13.795   6.016   2.215  0.1469  0.0632 -0.1392
14668PP      PP24772  10.495  11.901   8.221 -0.2626 -0.2102  0.0651
14669PP      PP24773   7.412  12.589   3.903  0.0639 -0.2528  0.1403
14670PP      PP24774  11.913   1.802  11.482 -0.1397 -0.3093  0.0359
14671PP      PP24775   9.805   3.341   8.428  0.2186  0.1022 -0.4173
14672PP      PP24776  10.422  14.373  13.317 -0.0634 -0.0567 -0.0134
14673PP      PP24777  14.575  15.101  11.077  0.0074  0.0567 -0.1836
14674PP      PP24778   6.828   4.542  11.108  0.3523 -0.0764  0.1823
14675PP      PP24779   3.997  13.953   9.254 -0.4135  0.0409 -0.1027
14676PP      PP24780   7.059  11.705  13.312  0.0154 -0.0350  0.0148
14677PP      PP24781  13.119  12.267  12.126 -0.1247 -0.0924  0.0003
14678PP      PP24782  10.773  12.553   7.612  0.1180 -0.0224  0.1192
14679PP      PP24783  15.087   8.312  10.245 -0.0758  0.0253 -0.0129
14680PP      PP24784  11.682  11.206  12.246 -0.3279  0.2345  0.0558
14681PP      PP24785  11.819   1.851   2.382 -0.2488  0.3044 -0.0063
14682PP      PP24786   4.113   5.430  12.790  0.1441  0.1326  0.1192
14683PP      PP24787   3.211   8.766  12.225 -0.2393  0.3164  0.0060
14684PP      PP24788  10.455  15.344  12.212 -0.0569 -0.2890 -0.1402
14685PP      PP24789   8.450   8.950   3.757  0.1665 -0.0736  0.0043
14686PP      PP24790   8.518  14.479  10.178  0.2350 -0.2798  0.0355
14687PP      PP24791   6.605  11.162  12.580  0.1528 -0.0988 -0.1832
14688PP      PP24792  11.455   5.218   3.081  0.0552  0.2180 -0.1711
14689PP      PP24793  14.926   1.871   4.159  0.2707  0.3079 -0.0716
14690PP      PP24794   1.860   8.962  10.369  0.0711 -0.2799  0.1131
14691PP      PP24795  14.571  15.276   1.176 -0.1835 -0.3422  0.0438
14692PP      PP24796   6.161   1.791  11.298  0.3572  0.2106 -0.2220
14693PP      PP24797  13.566   1.011   1.397  0.0118  0.0845 -0.0397
14694PP      PP24798   9.341   9.533   2.358  0.1346  0.0157  0.0292
14695PP      PP24799   2.665   7.847  10.094  0.0675 -0.0137  0.1235
14696PP      PP24800   5.230   5.239   1.841 -0.0277 -0.0265 -0.0156
14697PP      PP24801  15.554   3.427   2.583 -0.0923 -0.0330  0.4560
14698PP      PP24802   8.734  13.339  11.548 -0.2062  0.0212  0.4503
14699PP      PP24803   4.399   5.653   4.221  0.1963  0.0846  0.2319
14700PP      PP24804   7.795  13.610   1.775  0.1453  0.0033 -0.0406
14701PP      PP24805   6.359   6.671  11.144 -0.0239  0.2029  0.1177
14702PP      PP24806   4.826  10.771  13.430 -0.1075 -0.2106 -0.1378
14703PP      PP24807   3.967   5.032   2.594 -0.2304 -0.2214  0.0204
14704PP      PP24808  12.803  14.695   1.475 -0.1010 -0.1173 -0.1346
14705PP      PP24809  13.753   7.016   4.334 -0.2714  0.1340 -0.1458
14706PP      PP24810  11.513   9.433  10.506 -0.0739 -0.1383 -0.0059
14707PP      PP24811  10.686   3.136  12.717  0.3999  0.1884  0.2901
14708PP      PP24812   9.149   6.030   9.748  0.3642 -0.2094 -0.0509
14709PP      PP24813   9.420   0.887   3.569 -0.3239 -0.2508  0.0261
14710PP      PP24814  15.329   6.145   4.483 -0.1109  0.0834 -0.0763
14711PP      PP24815   9.434  15.207   2.092 -0.0007  0.1750 -0.1681
14712PP      PP24816   2.972  11.003   2.027  0.0623  0.2167  0.2162
14713PP      PP24817   9.898   9.569  12.045 -0.3766  0.1958  0.0827
14714PP      PP24818   7.668  11.535   1.071 -0.0412  0.0378 -0.1944
14715PP      PP24819   5.733   8.002   9.641 -0.1331 -0.1114 -0.0861
14716PP      PP24820  10.576  10.036   2.460  0.2494  0.0178 -0.1931
14717PP      PP24821  14.249  10.023   3.155 -0.0510  0.1723 -0.2184
14718PP      PP24822   0.465   7.808   3.557  0.2468  0.0303 -0.1409
14719PP      PP24823  11.076   2.478  11.284  0.0468  0.0008  0.1339
14720PP      PP24824  12.314  14.495  12.727  0.0918  0.0009  0.0351
14721PP      PP24825   2.708   1.033  10.948 -0.1664  0.2347  0.0176
14722PP      PP24826   8.863  12.083   9.747 -0.1496  0.1416  0.0507
14723PP      PP24827   1.456   9.930  12.036 -0.0744 -0.3134  0.0863
14724PP      PP24828  11.224   9.931   1.435 -0.1926 -0.2107 -0.1628
14725PP      PP24829  15.793   9.924  10.100  0.2849  0.3163 -0.1357
14726PP      PP24830   4.715   7.301   1.211 -0.1355 -0.2079  0.1115
14727PP      PP24831   4.863   5.980   1.743 -0.1062  0.0044  0.2027
14728PP      PP24832   7.325  11.451   3.431  0.1018  0.1429  0.1795
14729PP      PP24833  13.629  10.196   0.336  0.2805  0.0273 -0.0130
14730PP      PP24834   1.919   9.645  10.707 -0.2384  0.2254  0.1939
14731PP      PP24835   0.267   5.371  13.391 -0.2997 -0.0216 -0.0393
14732PP      PP24836   8.257   1.545  13.271  0.0652  0.1038  0.0682
14733PP      PP24837  12.550  12.508   3.139 -0.1267  0.0648  0.1268
14734PP      PP24838   7.000   0.090   3.891  0.2394 -0.1299  0.0012
14735PP      PP24839   8.490   9.826  11.890 -0.0746 -0.3491 -0.1350
14736PP      PP24840   7.694  11.113  12.590  0.3450 -0.0597 -0.1457
14737PP      PP24841   3.607  11.756   1.737 -0.2638 -0.1010  0.1020
14738PP      PP24842  13.687   3.127   4.468  0.1844 -0.0731  0.0145
14739PP      PP24843   8.795   2.491   3.004  0.4190 -0.0387 -0.1489
14740PP      PP24844   6.719   4.234   3.282 -0.3019  0.2028  0.0769
14741PP      PP24845   4.963   1.589   4.509 -0.1092 -0.0752  0.4729
14742PP      PP24846   1.372   1.777  11.774  0.0957 -0.0650 -0.0596
14743PP      PP24847   9.954  13.964   2.536  0.3070 -0.1908  0.1108
14744PP      PP24848   0.933   3.177  11.186  0.1275 -0.0272  0.2753
14745PP      PP24849   8.856  11.864  13.232 -0.1630 -0.0335 -0.0291
14746PP      PP24850  13.761   2.234  11.964 -0.0970 -0.0424 -0.0371
14747PP      PP24851   7.842   8.914   2.689 -0.0125  0.2233  0.3665
14748PP      PP24852  15.843   8.037   1.483 -0.0310  0.1314 -0.2440
14749PP      PP24853   8.466   1.092   8.765  0.1058 -0.1072 -0.1315
14750PP      PP24854  15.376  13.765   0.029 -0.0497 -0.0225 -0.2262
14751PP      PP24855   1.674  11.485   0.630  0.0435 -0.0352  0.0407
14752PP      PP24856  14.920   1.074   1.657  0.1296 -0.0691 -0.0945
14753PP      PP24857   2.779  10.414  12.681  0.0389 -0.1336  0.0174
14754PP      PP24858   9.678   7.759   2.807 -0.0581 -0.3720 -0.1266
14755PP      PP24859   2.009   3.647   3.849 -0.3897  0.0440  0.1497
14756PP      PP24860   8.133   7.308   2.019  0.3162 -0.2867 -0.0591
14757PP      PP24861  11.328   7.275   0.330 -0.1015  0.4030  0.1206
14758PP      PP24862   8.600  13.367   3.614  0.1150 -0.2647 -0.0297
14759PP      PP24863   7.242  14.617  12.001  0.1253  0.1302 -0.2118
14760PP      PP24864   9.783  11.754  12.975 -0.0982 -0.0645 -0.2167
14761PP      PP24865  13.322   8.976  11.588  0.1165  0.0213  0.3144
14762PP      PP24866   6.478  11.801  11.594  0.0456  0.1290 -0.3527
14763PP      PP24867   6.743   0.609   9.264  0.1069  0.0883  0.0817
14764PP      PP24868   3.580  10.445  12.608  0.0417  0.1731 -0.3317
14765PP      PP24869   2.444   0.295  12.326 -0.1255  0.0604  0.3923
14766PP      PP24870  11.868   6.141   4.652  0.2336  0.2270  0.3110
14767PP      PP24871   8.534  13.834   8.628 -0.2040  0.1245  0.2625
14768PP      PP24872   5.088  14.707   3.220  0.1431 -0.0500 -0.0081
14769PP      PP24873   4.705   4.634  10.324  0.1232 -0.2297  0.0293
14770PP      PP24874   0.570  14.749  12.479 -0.2633 -0.0763  0.0739
14771PP      PP24875   3.669  10.398   4.048  0.1571 -0.0853 -0.0617
14772PP      PP24876   9.328   2.998   1.293 -0.0139  0.1382 -0.2700
14773PP      PP24877   7.696  15.879   2.867  0.1037  0.2677 -0.0966
14774PP      PP24878   6.903   4.589   0.931  0.0281  0.0736  0.3220
14775PP      PP24879   7.422   5.725   0.327  0.1610 -0.2713  0.0642
14776PP      PP24880  10.536  15.405  10.679  0.0138  0.0768 -0.0053
14777PP      PP24881   8.167   7.058   3.493 -0.3615 -0.2348  0.1673
14778PP      PP24882   1.649   2.884  10.077  0.0472 -0.1265 -0.2088
14779PP      PP24883  12.879  11.727  13.126 -0.2286  0.1398  0.4105
14780PP      PP24884   0.773  11.234   4.359  0.2081  0.2043 -0.0831
14781PP      PP24885  13.153   1.713   4.849 -0.0818  0.1955  0.1318
14782PP      PP24886   8.295   7.155   4.600 -0.0421 -0.2063  0.3352
14783PP      PP24887  12.936   3.724   2.285 -0.0374  0.0897 -0.0152
14784PP      PP24888   1.579   3.316  11.363  0.1341  0.1383 -0.0761
14785PP      PP24889   8.200  14.824   9.416 -0.1669  0.1585 -0.1170
14786PP      PP24890   3.143   9.746   4.454  0.3351 -0.1495  0.0521
14787PP      PP24891  15.376  13.476  13.076 -0.1940  0.0928  0.1829
14788PP      PP24892   9.606   3.607  10.623  0.1324  0.0805  0.1044
14789PP      PP24893   8.015   7.934   4.679 -0.2249 -0.0413  0.1586
14790PP      PP24894   2.427   8.488   0.726  0.2088  0.0614 -0.0895
14791PP      PP24895   9.843   8.005   3.221 -0.0867  0.1722 -0.2072
14792PP      PP24896  11.196   8.038  11.329  0.0786 -0.0356  0.1963
14793PP      PP24897   2.240   9.585  11.088 -0.1816 -0.0272 -0.1526
14794PP      PP24898  10.927  14.193   1.309 -0.0078  0.0875 -0.1900
14795PP      PP24899   5.182   3.405   4.232 -0.0484  0.2480 -0.1305
14796PP      PP24900   6.865  12.311   1.933 -0.2560  0.3788 -0.0567
14797PP      PP24901   9.192  11.508   2.395  0.2962  0.2962  0.3350
14798PP      PP24902   4.546   6.105   4.854 -0.2482  0.3513 -0.1064
14799PP      PP24903  10.096   3.656   2.398  0.0290 -0.2675  0.0822
14800PP      PP24904   6.460   0.955   8.479 -0.1196  0.2260 -0.1811
14801PP      PP24905   1.830  13.767   9.942 -0.1488  0.3110 -0.1014
14802PP      PP24906   8.725  14.283   3.684  0.1833 -0.1993  0.0865
14803PP      PP24907   9.589   7.382   0.460 -0.1269 -0.0226  0.1037
14804PP      PP24908  11.984  10.967   0.231  0.0548  0.0645 -0.0410
14805PP      PP24909   7.128  13.166  13.370 -0.2614 -0.1283 -0.1884
14806PP      PP24910   2.505  11.704   3.715 -0.0317 -0.0113  0.2506
14807PP      PP24911  14.638   6.567   2.172  0.3276 -0.0937  0.0079
14808PP      PP24912   4.525  12.871  13.066 -0.1662  0.0648 -0.0232
14809PP      PP24913   6.618  14.791   3.805  0.0577  0.1229 -0.0269
14810PP      PP24914  12.616   7.628  10.131  0.1758  0.3394  0.1817
14811PP      PP24915   9.325  13.035   0.522  0.0304  0.2180 -0.1515
14812PP      PP24916   0.899   3.710   0.018  0.0216  0.0149  0.0349
14813PP      PP24917   5.465  14.415  13.368 -0.1203  0.0482 -0.0548
14814PP      PP24918  13.673   8.805   9.157  0.3485  0.2679  0.1275
14815PP      PP24919  12.565   1.630   4.885  0.0234  0.0914 -0.0158
14816PP      PP24920   9.933  13.764   3.010  0.0450 -0.0386 -0.1494
14817PP      PP24921   9.520   0.745   2.469 -0.2289 -0.1416  0.3136
14818PP      PP24922   2.233   2.843  10.323  0.1696  0.3224  0.3052
14819PP      PP24923   6.010   0.745   0.664 -0.2621  0.0440  0.0034
14820PP      PP24924  11.658  14.173  12.649  0.3757  0.0202  0.2385
14821PP      PP24925  13.041  10.241   1.149 -0.1131 -0.0943 -0.1030
14822PP      PP24926   6.644   6.445  10.470  0.3168 -0.1184 -0.0378
14823PP      PP24927   6.699  11.513   1.601 -0.1627 -0.4688  0.0191
14824PP      PP24928   6.924   7.797  10.166  0.2036 -0.2167 -0.1381
14825PP      PP24929   0.110   5.855   0.653  0.0826 -0.2264  0.2399
14826PP      PP24930  13.154  15.863   0.672  0.0821  0.1041  0.0470
14827PP      PP24931   1.135   1.617   9.812  0.0818  0.4937 -0.1580
14828PP      PP24932  12.254   9.748   8.977 -0.1239  0.1182 -0.2515
14829PP      PP24933   8.576   2.276   9.293 -0.2286 -0.0083 -0.1779
14830PP      PP24934   3.307  15.056   3.022  0.1797  0.0143 -0.0021
14831PP      PP24935   3.679   0.831  11.069  0.0778 -0.1024  0.1497
14832PP      PP24936   0.428   9.966   4.040 -0.1621  0.1967  0.2133
14833PP      PP24937   4.917   0.627  10.822  0.0939 -0.0648 -0.2039
14834PP      PP24938   5.637  15.716   1.294  0.0358  0.4909 -0.1274
14835PP      PP24939   2.094  11.933   1.927  0.0898  0.2522  0.1644
14836PP      PP24940  10.491  15.400  10.011 -0.2849  0.2992  0.0033
14837PP      PP24941   4.528   7.248  10.782  0.1675  0.0955  0.2703
14838PP      PP24942   2.166   8.083   4.210 -0.3834  0.1609  0.0281
14839PP      PP24943  11.067  14.965  12.885 -0.0725  0.3745 -0.0423
14840PP      PP24944   5.612  15.405   1.848  0.1023 -0.4105 -0.1587
14841PP      PP24945   7.947  12.050   1.421 -0.0243 -0.0781  0.1798
14842PP      PP24946   1.213   2.976   3.406 -0.0032  0.0418  0.1729
14843PP      PP24947   9.261   9.823   4.124 -0.0794  0.1103  0.2249
14844PP      PP24948   2.052   8.165  11.513 -0.1278  0.1600  0.1726
14845PP      PP24949   6.117   8.398   4.333 -0.0278  0.0955 -0.0496
14846PP      PP24950   0.941   1.169  10.782 -0.3246  0.1171  0.1573
14847PP      PP24951  10.963  10.571  13.303  0.0784  0.2842 -0.0924
14848PP      PP24952   3.420   0.232   1.645 -0.0105 -0.0446 -0.0595
14849PP      PP24953   3.117   0.942  10.587  0.0289  0.0169  0.2073
14850PP      PP24954  15.411   6.127   1.787  0.0453  0.0546  0.3164
14851PP      PP24955  13.564   4.298   8.509 -0.0291 -0.0427 -0.2289
14852PP      PP24956   6.311  10.033  11.570 -0.0309 -0.0471 -0.0852
14853PP      PP24957   0.198  14.042   3.261  0.0692 -0.1528  0.1446
14854PP      PP24958   1.281   8.502  11.027 -0.2420 -0.0736  0.3525
14855PP      PP24959   0.353   0.894   0.567 -0.0105 -0.2414 -0.3507
14856PP      PP24960  15.885   3.038  12.239  0.0766  0.0611  0.4963
14857PP      PP24961   2.409   6.093  12.064  0.0107 -0.0071  0.2111
14858PP      PP24962  11.904  15.325  10.682  0.0975 -0.1085  0.0193
14859PP      PP24963  15.394  10.732   1.859  0.2097  0.2566 -0.2549
14860PP      PP24964   9.660   1.327   9.836 -0.2645 -0.1585  0.1763
14861PP      PP24965   9.583  11.454   8.345  0.2030 -0.0317 -0.0312
14862PP      PP24966   4.423   4.307   2.728 -0.0249  0.1841 -0.2428
14863PP      PP24967   2.370  14.629  10.212 -0.1831 -0.1304  0.0070
14864PP      PP24968   2.635   4.574   1.426 -0.1761  0.1591  0.2747
14865PP      PP24969  12.939   3.741   2.824  0.1249 -0.1147 -0.0099
14866PP      PP24970   5.640  12.380   9.174  0.0711  0.3178 -0.1449
14867PP      PP24971   5.375   1.910  10.634 -0.0211 -0.4064 -0.0731
14868PP      PP24972   5.789  13.770   2.805 -0.1144  0.1306 -0.2886
14869PP      PP24973   6.424   0.653  12.750 -0.0883 -0.0103 -0.2266
14870PP      PP24974   9.433   7.540  12.773 -0.0398  0.2630 -0.2178
14871PP      PP24975  12.864   8.218  10.710 -0.0820  0.0064 -0.2288
14872PP      PP24976   9.811   6.609   9.187 -0.3912  0.2321  0.1061
14873PP      PP24977   0.980   7.224  11.132  0.0765 -0.3216  0.1407
14874PP      PP24978  14.144  14.558   0.409  0.0825 -0.2198 -0.2681
14875PP      PP24979  13.470   1.435  12.859  0.2080 -0.2538 -0.1115
14876PP      PP24980  11.472   9.898   1.895 -0.1256  0.1590  0.0570
14877PP      PP24981  11.792   4.114  11.517 -0.0622  0.0758  0.2702
14878PP      PP24982  10.083  11.790   8.961  0.2199 -0.2144  0.1383
14879PP      PP24983  13.505   8.572   1.714 -0.3216 -0.0824  0.1531
14880PP      PP24984  13.471  10.105   9.549 -0.0198 -0.1034 -0.2023
14881PP      PP24985   9.651   2.656  12.764 -0.1784  0.2149  0.0552
14882PP      PP24986   8.661  10.192   0.307 -0.0151  0.0184 -0.0049
14883PP      PP24987  13.331   1.601  12.064 -0.0997 -0.2741  0.1831
14884PP      PP24988   5.632   9.392  11.991  0.0810 -0.1402  0.2617
14885PP      PP24989  13.094   0.729   8.516  0.0720 -0.0174 -0.4121
14886PP      PP24990   8.802   7.466   2.984  0.1874  0.1106  0.0654
14887PP      PP24991   1.556   2.693   0.480 -0.0500 -0.0435 -0.0842
14888PP      PP24992  11.637   3.570   4.448  0.1235 -0.0536 -0.4636
14889PP      PP24993   0.377   9.458   3.115  0.1244 -0.1146 -0.3557
14890PP      PP24994   5.019  14.758   3.834  0.2410  0.0046  0.2268
14891PP      PP24995  11.871   4.708  10.329 -0.2202 -0.0696 -0.0558
14892PP      PP24996   5.946   7.491   4.888  0.0122  0.1598  0.0111
14893PP      PP24997   8.084  11.200  11.219  0.0282 -0.0456  0.0307
14894PP      PP24998   1.844  10.331   0.269 -0.0828 -0.0158 -0.2047
14895PP      PP24999   7.145   4.193  10.288  0.0075  0.1307  0.1476
14896PP      PP25000  10.812   4.892  12.565  0.0402  0.3363  0.0014
14897PP      PP25001   8.656  10.509   9.780  0.1231 -0.2681 -0.1411
14898PP      PP25002   2.818  12.899  11.993 -0.0773 -0.2150 -0.0745
14899PP      PP25003   6.532  10.969   2.417 -0.0970  0.1168 -0.3371
14900PP      PP25004   8.956  12.782   4.449 -0.2893 -0.2628  0.0192
14901PP      PP25005  15.217   9.674  12.364 -0.2340  0.0367  0.2240
14902PP      PP25006   6.563   8.387   1.219  0.2249 -0.2703  0.1846
14903PP      PP25007   3.014  11.561   3.463 -0.0410 -0.0294  0.3465
14904PP      PP25008  15.544  12.963   9.139  0.0302  0.1136  0.1246
14905PP      PP25009   5.214   5.161   0.204 -0.0422 -0.1175 -0.2111
14906PP      PP25010   3.657   8.174  11.492  0.1084  0.1265  0.0954
14907PP      PP25011   1.674   7.334   1.187  0.0232 -0.5014  0.2685
14908PP      PP25012  12.760  15.112  10.732  0.2998 -0.1880 -0.1372
14909PP      PP25013   2.004   5.569  10.372 -0.2781 -0.2284  0.0823
14910PP      PP25014   0.502  11.365  13.409 -0.0156  0.3023 -0.0481
14911PP      PP25015   1.364   0.533   4.075  0.1290 -0.0965 -0.0979
14912PP      PP25016   8.115   9.341   0.804 -0.1006 -0.0558  0.0095
14913PP      PP25017  13.143  12.227   8.502  0.0203 -0.4024 -0.1464
14914PP      PP25018   5.141  12.333   2.593  0.0458  0.1831  0.0145
14915PP      PP25019   6.527   2.462  12.323 -0.0155  0.2874 -0.0159
14916PP      PP25020  10.883   8.766   0.584 -0.0313 -0.1121  0.2592
14917PP      PP25021  11.214   7.301   9.733 -0.0662 -0.0117 -0.3475
14918PP      PP25022   0.903   0.205   0.269  0.0927 -0.0208  0.0698
14919PP      PP25023  15.347  14.235   0.192 -0.3480 -0.0878  0.1046
14920PP      PP25024  14.116   2.894  11.931  0.3592  0.0035  0.1000
14921PP      PP25025  15.770  13.543   9.590 -0.0360  0.1507 -0.1092
14922PP      PP25026  15.403  15.850   0.235 -0.2650 -0.0854  0.1446
14923PP      PP25027  10.903   4.702   9.877  0.2949 -0.1939 -0.0080
14924PP      PP25028   0.639  13.313   0.305  0.1063  0.2620 -0.1628
14925PP      PP25029   4.474   8.429   4.694 -0.0266  0.5563  0.2925
14926PP      PP25030   7.553  10.756   2.731 -0.1055 -0.4128  0.2526
14927PP      PP25031  12.094  15.382   3.299  0.1666  0.0509 -0.5092
14928PP      PP25032   0.737   9.180   1.390  0.0604  0.0335 -0.0139
14929PP      PP25033  11.983   8.049   3.592  0.0503 -0.1612  0.0925
14930PP      PP25034  12.897   6.327  11.328  0.1729  0.2101  0.1756
14931PP      PP25035   2.549   4.239  11.250  0.2140  0.0130 -0.0002
14932PP      PP25036   1.335   3.964   0.422 -0.0678  0.1449  0.1549
14933PP      PP25037   8.301   4.290   1.074 -0.2766  0.0629  0.4804
14934PP      PP25038   3.601   1.310  10.602 -0.0277  0.0271 -0.0308
14935PP      PP25039   6.324   3.851   2.038 -0.1561  0.2185 -0.1420
14936PP      PP25040   0.854   9.181   0.607  0.0312 -0.0882 -0.3387
14937PP      PP25041  13.654   7.931  12.263 -0.1374 -0.0792 -0.1886
14938PP      PP25042   5.087   3.264  12.175  0.2118 -0.4082  0.2034
14939PP      PP25043  14.744   3.199   0.843 -0.2375 -0.3021  0.2602
14940PP      PP25044  13.544   4.468  11.095  0.2205 -0.0638 -0.0805
14941PP      PP25045  11.060  10.155   8.724 -0.1542  0.2968  0.1024
14942PP      PP25046  12.912  13.534  10.805 -0.0173  0.0157  0.1053
14943PP      PP25047  14.685   5.011  12.283 -0.0572  0.0005  0.0184
14944PP      PP25048   1.921   8.968   3.392 -0.2719  0.0290 -0.0215
14945PP      PP25049  11.352  15.247   9.531  0.0453 -0.0184  0.1367
14946PP      PP25050   8.148   4.292   0.635 -0.3049  0.1384 -0.0229
14947PP      PP25051   5.924   5.103   3.660  0.1295  0.1652 -0.2743
14948PP      PP25052   0.355   9.963   3.165  0.1151 -0.1359 -0.1410
14949PP      PP25053   9.774  11.359   1.411  0.2880 -0.0547  0.1974
14950PP      PP25054   4.263  14.824  11.813 -0.2284 -0.1663  0.1864
14951PP      PP25055   5.502   5.494   0.427  0.5031 -0.1246  0.2100
14952PP      PP25056   3.812   4.695   4.548 -0.1567 -0.0905 -0.0728
14953PP      PP25057   8.647   8.158  12.494 -0.2609 -0.0762  0.0780
14954PP      PP25058   9.039   7.598   1.375 -0.0469  0.0346 -0.2004
14955PP      PP25059  12.506  12.443  10.242  0.0402 -0.2013  0.3061
14956PP      PP25060  15.622  15.136  11.279  0.2858  0.0638 -0.2835
14957PP      PP25061   4.367  10.948  10.899  0.2517  0.0515  0.1362
14958PP      PP25062   5.200  13.719   2.682 -0.0990 -0.0385  0.2151
14959PP      PP25063   9.591   7.078   9.118 -0.1675 -0.1599 -0.1153
14960PP      PP25064  15.451   3.666  10.480 -0.1961  0.6143 -0.1285
14961PP      PP25065  12.925   7.729  12.888  0.0787  0.0503 -0.2542
14962PP      PP25066  10.368   0.780  12.210 -0.0703 -0.1345 -0.0098
14963PP      PP25067  15.134  11.322  10.004 -0.1656  0.5434  0.1243
14964PP      PP25068   5.052   3.737  12.342  0.6625 -0.0340 -0.1235
14965PP      PP25069   2.750   6.954   3.196 -0.1741 -0.0655  0.1264
14966PP      PP25070  11.049   2.761  12.752  0.0222 -0.2925  0.2391
14967PP      PP25071   4.228  10.230   4.022 -0.2563 -0.0319 -0.1130
14968PP      PP25072   1.340   1.513   4.346  0.2599  0.0369 -0.2317
14969PP      PP25073   2.831  11.080  10.588 -0.1299 -0.0136 -0.0451
14970PP      PP25074   2.678  10.826   2.829 -0.3354  0.1769  0.0299
14971PP      PP25075  15.429  14.672   0.720  0.0323  0.0689  0.0004
14972PP      PP25076   5.540   3.196   0.830  0.0596  0.1753  0.1060
14973PP      PP25077   0.707  11.735   0.898  0.2223  0.0213  0.1670
14974PP      PP25078   1.531   8.791   3.741  0.0340 -0.0887  0.0281
14975PP      PP25079   3.724  15.351   0.616  0.0908  0.1632 -0.1279
14976PP      PP25080   1.895  11.178   9.093  0.3529 -0.2485  0.1816
14977PP      PP25081   3.341   7.405   2.722 -0.0830 -0.0319  0.0324
14978PP      PP25082   8.287   7.651  10.823  0.1265 -0.3545 -0.0369
14979PP      PP25083   9.549   5.876   3.785  0.0746 -0.1514  0.2235
14980PP      PP25084   7.896  10.980  10.191  0.2245  0.1816  0.1791
14981PP      PP25085   0.734   3.525   1.594 -0.1177  0.2649  0.1214
14982PP      PP25086   4.284   3.158   2.022  0.0968  0.4874  0.2646
14983PP      PP25087   7.671  10.518  10.230  0.0030 -0.2280  0.2947
14984PP      PP25088   6.626   9.447   4.498  0.0412 -0.2783  0.0477
14985PP      PP25089  14.119   4.520  11.188 -0.1076  0.2953  0.0607
14986PP      PP25090   0.887  13.863   9.518  0.0256  0.0085  0.1181
14987PP      PP25091  14.198  15.182  12.095 -0.2765  0.2668  0.1808
14988PP      PP25092   5.142  15.772   3.548  0.4149  0.1169 -0.1375
14989PP      PP25093  14.802  15.876   2.111 -0.1780  0.2050  0.4026
14990PP      PP25094   3.928  15.100   3.916  0.0424 -0.0108  0.0049
14991PP      PP25095  13.046   9.909  11.033 -0.0383 -0.0915  0.0414
14992PP      PP25096  12.162  10.562   3.318  0.0003  0.1338  0.0880
14993PP      PP25097   8.438   0.733   3.875 -0.2396  0.2253  0.2512
14994PP      PP25098   5.742   6.228   3.710 -0.0910 -0.1498 -0.4284
14995PP      PP25099   0.767   1.773   3.010 -0.0477 -0.0349  0.0473
14996PP      PP25100   8.617   8.691  11.212  0.1924 -0.1979  0.1377
14997PP      PP25101  13.727  11.373   1.622 -0.4653  0.0336  0.3039
14998PP      PP25102   6.447   0.903  12.321 -0.5724 -0.0441 -0.1678
14999PP      PP25103   8.746   1.425   9.177 -0.1090 -0.0740 -0.1308
15000PP      PP25104   8.166   7.245  12.373 -0.0044 -0.3591  0.1218
15001PP      PP25105  12.342   7.796   1.403 -0.1812 -0.2697 -0.4345
15002PP      PP25106   5.695  12.971   1.040 -0.0054 -0.0357  0.0977
15003PP      PP25107   1.448  13.382   0.868  0.0238 -0.0344  0.1780
15004PP      PP25108  11.894  12.481   8.899  0.3406  0.1551  0.1392
15005PP      PP25109  14.882   8.420  10.816 -0.0724 -0.0131  0.1833
15006PP      PP25110   0.332  11.108  12.404  0.2879 -0.1369  0.1834
15007PP      PP25111   5.791   4.441  12.603 -0.0429 -0.1974  0.1319
15008PP      PP25112  10.555  10.586   2.311  0.0579  0.2670  0.1521
15009PP      PP25113  12.039   8.521   3.477  0.1257  0.2918 -0.0022
15010PP      PP25114   2.575  11.163  11.058  0.0586  0.3883  0.2328
15011PP      PP25115   4.287   7.555  11.583 -0.1656 -0.2507  0.0040
15012PP      PP25116   6.872   0.532   1.858 -0.5534 -0.0056 -0.0629
15013PP      PP25117   5.512  14.711  10.879  0.4288 -0.0007  0.1035
15014PP      PP25118   6.926   9.878  11.113 -0.1227  0.0458 -0.0033
15015PP      PP25119  12.029  11.228  13.195 -0.2904  0.1100 -0.2742
15016PP      PP25120  13.306   0.200   0.136 -0.1213 -0.2347 -0.0528
15017PP      PP25121   8.235  12.772  11.023  0.1598 -0.0644 -0.1265
15018PP      PP25122  14.831  13.241   1.822  0.0179 -0.1212 -0.0843
15019PP      PP25123  14.996  12.328   2.137 -0.0161  0.1796  0.0410
15020PP      PP25124  14.873  11.397   0.510  0.3318  0.0579  0.2452
15021PP      PP25125  13.082   2.248  13.274 -0.1183 -0.0315 -0.0416
15022PP      PP25126   8.869  10.396   3.133  0.1270  0.3581  0.1935
15023PP      PP25127  11.233   8.242  12.491  0.0914  0.0053  0.0582
15024PP      PP25128   3.202   6.387  11.557 -0.0940  0.1166  0.1113
15025PP      PP25129  12.457  15.832   3.829 -0.2496 -0.1419 -0.2154
15026PP      PP25130   6.746   5.255  12.078 -0.1569  0.1828 -0.0487
15027PP      PP25131   3.980  14.236  11.076  0.2934  0.0694 -0.0289
15028PP      PP25132  11.168  11.469   3.041  0.1202 -0.1980 -0.0916
15029PP      PP25133   0.973   1.268   3.121 -0.1775  0.1035  0.1084
15030PP      PP25134  10.013   3.741  11.906  0.0610  0.1939  0.2474
15031PP      PP25135   5.210   2.963   3.919 -0.0600 -0.1725 -0.0672
15032PP      PP25136   9.443   7.921   3.455  0.1981  0.1084 -0.3109
15033PP      PP25137   5.940   4.418   9.814 -0.1614 -0.0345  0.0175
15034PP      PP25138   7.889   2.795  10.239  0.1470  0.1441 -0.0067
15035PP      PP25139   6.606   2.012  10.619  0.1677 -0.2422  0.0603
15036PP      PP25140  15.127   5.860  13.197 -0.0207 -0.2907  0.1309
15037PP      PP25141  10.767  11.450   8.961  0.1306  0.1955 -0.1074
15038PP      PP25142  15.549  14.041   2.882 -0.0223 -0.2866 -0.2893
15039PP      PP25143   9.709  14.206   2.007  0.0422  0.1028  0.1921
15040PP      PP25144   9.370  15.831   9.197 -0.0157 -0.0537 -0.1831
15041PP      PP25145   9.373  10.948  12.827 -0.1066  0.0047  0.0787
15042PP      PP25146   6.062   7.000  11.383 -0.3647 -0.2272  0.0437
15043PP      PP25147   1.176   2.807   2.991 -0.2194  0.0519 -0.2375
15044PP      PP25148   5.982  15.168  12.384  0.1084  0.0935 -0.1502
15045PP      PP25149   6.896  12.736   8.707 -0.1581  0.0504  0.0211
15046PP      PP25150  12.948   2.229   1.006  0.4689 -0.1774  0.0178
15047PP      PP25151   9.850  15.065   1.171 -0.1692  0.1744 -0.0271
15048PP      PP25152   5.570   8.138  11.550 -0.0830  0.0737 -0.0071
15049PP      PP25153  11.869   7.577   3.771 -0.2075 -0.1129 -0.1194
15050PP      PP25154   1.593   5.628   1.687  0.1220  0.2761  0.2085
15051PP      PP25155  13.266  10.855   0.815 -0.2962  0.0176 -0.1030
15052PP      PP25156  10.120   3.008  10.044  0.2293  0.0753  0.0568
15053PP      PP25157   4.983  15.544  11.288 -0.1418  0.2023  0.1045
15054PP      PP25158   3.748  13.243  12.508  0.3696  0.3334 -0.2702
15055PP      PP25159   8.849  13.591  12.630 -0.1180  0.2507  0.0931
15056PP      PP25160   3.734   1.892  11.485  0.0442 -0.0042 -0.0301
15057PP      PP25161  13.651   8.159  12.761 -0.0378  0.5440  0.0909
15058PP      PP25162   0.273   4.698  12.797 -0.0921 -0.0078 -0.0417
15059PP      PP25163   2.675  13.724  11.935  0.3046 -0.2525  0.0746
15060PP      PP25164   6.692  10.518   4.073 -0.0396  0.3219 -0.0780
15061PP      PP25165   6.979   2.476  10.626  0.0813 -0.1491 -0.3509
15062PP      PP25166  13.900  10.534   0.974 -0.1900  0.1766 -0.0346
15063PP      PP25167  13.813   9.980   4.722 -0.5462 -0.1199  0.0659
15064PP      PP25168   9.648   9.078  11.172 -0.0318  0.1009 -0.0181
15065PP      PP25169  10.538  12.612   8.564 -0.3053 -0.1078 -0.1135
15066PP      PP25170   3.871   6.508   1.101 -0.0977 -0.1308 -0.1131
15067PP      PP25171   7.054   6.700  11.831  0.2314 -0.0589  0.4102
15068PP      PP25172  13.575   0.641   3.409  0.0264 -0.1936  0.2473
15069PP      PP25173  10.697   9.912   3.859  0.4526  0.1221  0.2218
15070PP      PP25174  14.476   8.980   0.146 -0.1005 -0.0286 -0.2200
15071PP      PP25175   8.704  13.743  10.561  0.0191 -0.1003 -0.0168
15072PP      PP25176   9.004   0.307   3.340 -0.0078 -0.2336 -0.1560
15073PP      PP25177   8.419   4.436   2.937 -0.0838  0.1114 -0.1933
15074PP      PP25178   4.847   5.796  10.376 -0.1059 -0.1187 -0.3741
15075PP      PP25179   0.285  14.207   2.727 -0.0052 -0.0605  0.1239
15076PP      PP25180  15.600   5.074  11.859 -0.0108 -0.2258 -0.1540
15077PP      PP25181  11.463   0.801   4.578 -0.1420  0.3310  0.1277
15078PP      PP25182  11.666  12.130   9.655 -0.0254 -0.1096  0.1546
15079PP      PP25183   4.134   7.075   2.770 -0.1817 -0.1597  0.2618
15080PP      PP25184   5.850   3.848   2.370 -0.1116  0.0286  0.0877
15081PP      PP25185  12.601   3.426   9.195  0.2958 -0.0313  0.0559
15082PP      PP25186   9.985   5.888   3.532  0.1504 -0.2860 -0.1210
15083PP      PP25187   5.252   4.697  12.192 -0.2927 -0.2721  0.1740
15084PP      PP25188   8.018   3.502   9.314 -0.1279 -0.2495  0.2168
15085PP      PP25189   7.517   4.709   0.286  0.0952  0.1997 -0.0227
15086PP      PP25190   4.731   8.500   0.506  0.2625 -0.2873 -0.2622
15087PP      PP25191   5.529   8.264   3.055  0.2187 -0.0005  0.0898
15088PP      PP25192   8.802   9.102   1.901  0.0796  0.1563 -0.3747
15089PP      PP25193   8.120   3.747   4.210 -0.1213 -0.0895 -0.0411
15090PP      PP25194  11.858   0.803   4.989 -0.0831  0.0384 -0.2449
15091PP      PP25195   1.099   4.465   1.778  0.1853  0.5839  0.1580
15092PP      PP25196   1.907   6.048   0.958 -0.0368 -0.0404 -0.0056
15093PP      PP25197  11.914  14.481   1.658  0.1951  0.0397 -0.1884
15094PP      PP25198   1.877   7.307  11.616 -0.0752  0.1777  0.0150
15095PP      PP25199  13.333  15.846  10.231  0.1704 -0.0913 -0.1373
15096PP      PP25200  14.902   4.710   2.597 -0.1357 -0.0808  0.0031
15097PP      PP25201   2.806   5.300   4.662  0.0297 -0.1126 -0.1991
15098PP      PP25202   5.604   9.099   0.180  0.2906  0.0441  0.2241
15099PP      PP25203  10.470  13.330  11.887  0.3543 -0.0975 -0.1489
15100PP      PP25204   0.475   6.754   3.447 -0.0635 -0.3527 -0.0966
15101PP      PP25205  13.765  13.496   8.491  0.0406 -0.1165 -0.1220
15102PP      PP25206  11.584  15.596   3.177 -0.1888  0.0651  0.1146
15103PP      PP25207   8.348   3.193   9.633 -0.0706  0.2279  0.1290
15104PP      PP25208   9.687   9.119   4.037 -0.0394 -0.4834 -0.0555
15105PP      PP25209  13.734  14.837   0.366 -0.1538 -0.0068 -0.0719
15106PP      PP25210   6.987   6.670   9.858 -0.0332  0.0889 -0.2879
15107PP      PP25211   2.462   7.230  11.649  0.0886 -0.1651 -0.1744
15108PP      PP25212  10.688   6.563   0.020  0.1852  0.4655  0.0490
15109PP      PP25213  11.032   4.654  10.529  0.1278 -0.0494  0.0520
15110PP      PP25214   4.897  12.244  12.437 -0.2369  0.0521 -0.1385
15111PP      PP25215   7.134  10.795  11.194 -0.0829 -0.2465 -0.3835
15112PP      PP25216  10.535   7.447   4.318  0.1905  0.0492  0.1827
15113PP      PP25217   4.110  15.286   0.891  0.0732 -0.1874  0.4192
15114PP      PP25218   1.841   5.284  10.781 -0.2195  0.1046 -0.1378
15115PP      PP25219   0.514   3.961   1.467 -0.3493 -0.1934 -0.2078
15116PP      PP25220   3.574  13.544  10.497  0.0748  0.1041 -0.2585
15117PP      PP25221   2.245  10.117   4.719 -0.0179 -0.0398 -0.0806
15118PP      PP25222   6.680  14.583   0.185 -0.0227  0.0250  0.0346
15119PP      PP25223  13.285  13.055  12.507 -0.1448  0.0334 -0.1661
15120PP      PP25224   3.000   3.743   4.223 -0.3589  0.1401 -0.0481
15121PP      PP25225  12.267   0.949  12.087 -0.0927  0.0099 -0.2913
15122PP      PP25226  10.575   4.550  10.337 -0.0577 -0.1192 -0.1603
15123PP      PP25227  14.197   5.928   3.019 -0.0171 -0.0929 -0.3765
15124PP      PP25228   3.805  15.824   1.752 -0.1193 -0.3409  0.0001
15125PP      PP25229   7.754  12.878   8.261  0.1428 -0.0870  0.0862
15126PP      PP25230  13.283   2.952   8.929 -0.2662  0.1762 -0.1657
15127PP      PP25231   5.850   8.991   2.293  0.0605  0.0680 -0.3653
15128PP      PP25232   3.471  11.535   2.526 -0.1059 -0.4284 -0.3240
15129PP      PP25233   0.710  15.369  10.215 -0.2786 -0.1988  0.0425
15130PP      PP25234  12.090  14.618   3.047 -0.1995 -0.3542  0.0074
15131PP      PP25235  13.748  14.563   3.333 -0.1095 -0.0750  0.2152
15132PP      PP25236  11.403   0.676   4.044  0.2981 -0.1720  0.1157
15133PP      PP25237  15.688   0.749   0.536  0.0349 -0.0393  0.0729
15134PP      PP25238   2.330  13.577   0.646 -0.2540  0.0945 -0.1133
15135PP      PP25239   0.646  15.706   1.558 -0.1022  0.1823  0.3307
15136PP      PP25240   9.447  12.861   3.250  0.0536  0.0378 -0.0566
15137PP      PP25241  12.610  13.558  12.651 -0.0049 -0.0147  0.1046
15138PP      PP25242   6.806   4.833   8.950  0.1546 -0.2746  0.2116
15139PP      PP25243  14.397   2.558  10.210 -0.0473  0.3150 -0.0354
15140PP      PP25244   2.721   7.234  13.163 -0.3883 -0.0321  0.0343
15141PP      PP25245   1.930   2.842   3.741 -0.0789 -0.0536 -0.0030
15142PP      PP25246   0.659   7.600   1.309 -0.0859 -0.0510 -0.1362
15143PP      PP25247   1.854   0.336   9.942  0.0207 -0.0005  0.0379
15144PP      PP25248   1.804  13.294   3.134 -0.2244  0.1304 -0.1132
15145PP      PP25249  11.236   7.509   0.850 -0.1268  0.3715 -0.4104
15146PP      PP25250   3.140  14.235  13.212  0.4005  0.1654  0.0103
15147PP      PP25251  11.184   9.011   1.859 -0.0403  0.0675  0.2333
15148PP      PP25252   9.221  15.128  11.379 -0.0644 -0.2676  0.2934
15149PP      PP25253   8.886   5.720  13.248  0.1000  0.1117 -0.0806
15150PP      PP25254  10.387  11.409  11.793 -0.1685 -0.0135  0.1082
15151PP      PP25255   4.602   4.848   9.328  0.2580  0.0805  0.1785
15152PP      PP25256   1.075   7.626  12.362  0.1589 -0.3348 -0.2911
15153PP      PP25257  12.025   3.795   9.990  0.0327  0.2766  0.4899
15154PP      PP25258   8.282  12.986   9.833 -0.1285 -0.0807  0.0682
15155PP      PP25259   6.224   8.874   3.624  0.3156  0.0504 -0.0663
15156PP      PP25260   7.786   9.894   1.659  0.0984 -0.1577  0.4884
15157PP      PP25261   8.886   8.759   3.495 -0.0278 -0.1940  0.0661
15158PP      PP25262  15.391   5.487  13.426 -0.1987 -0.0403  0.1495
15159PP      PP25263  13.276   3.549   8.808  0.0808  0.1441  0.1108
15160PP      PP25264  11.985   2.716  12.970  0.0965 -0.1631 -0.1487
15161PP      PP25265   4.056   3.423  12.167 -0.1552 -0.0450  0.0728
15162PP      PP25266   7.367   1.411   0.771  0.0452 -0.0335  0.1435
15163PP      PP25267  11.271  11.902   2.102 -0.3042  0.2287 -0.0979
15164PP      PP25268  13.399  15.227  10.398 -0.1606 -0.1803  0.1475
15165PP      PP25269   8.226   6.258  10.369  0.4134 -0.1111 -0.0127
15166PP      PP25270   2.575   3.152  12.286  0.4102  0.0119  0.2495
15167PP      PP25271   1.088   3.965   4.599 -0.1268 -0.0486 -0.2221
15168PP      PP25272   2.125   3.805  10.534 -0.0086  0.3248 -0.6522
15169PP      PP25273   7.694   4.069   0.925  0.3173 -0.3140  0.0584
15170PP      PP25274   1.169   5.237   2.783  0.1052 -0.0036 -0.1497
15171PP      PP25275  15.551   5.649   3.559 -0.0116 -0.1434  0.2855
15172PP      PP25276   2.337   1.997   1.327 -0.1155  0.0187 -0.0926
15173PP      PP25277  10.602  15.736   3.461 -0.1484 -0.3259 -0.0421
15174PP      PP25278  14.306   4.877  11.774  0.0020 -0.1923  0.5037
15175PP      PP25279   9.024  10.631  10.064  0.0103  0.0421  0.0676
15176PP      PP25280   1.040   5.325   0.643  0.2904  0.1479 -0.1950
15177PP      PP25281   5.472   8.686   9.901  0.0139  0.0689 -0.0183
15178PP      PP25282   4.892  15.357  10.566 -0.1299 -0.0372  0.0247
15179PP      PP25283  10.148  12.742   2.246 -0.1578  0.0292  0.0750
15180PP      PP25284  11.032   1.795  10.974  0.3255 -0.0316 -0.0226
15181PP      PP25285   1.403   0.568  10.393  0.1768 -0.2376 -0.5712
15182PP      PP25286  15.196  15.265  11.645  0.2980  0.2850 -0.2360
15183PP      PP25287  15.862   8.415  12.179 -0.1494 -0.4560  0.1635
15184PP      PP25288   4.159  15.309   8.779  0.0282 -0.0327  0.0898
15185PP      PP25289   1.904   4.277   2.728 -0.0065 -0.0922 -0.1672
15186PP      PP25290   6.423   8.978   0.640  0.0392  0.3839 -0.0668
15187PP      PP25291   9.220  14.134   0.582 -0.2723  0.1750 -0.0085
15188PP      PP25292  10.053  14.772  12.920 -0.0032 -0.0168  0.3028
15189PP      PP25293  14.184  15.494   9.869  0.0470 -0.0078 -0.3635
15190PP      PP25294  15.126   1.192  11.812 -0.1158  0.5688 -0.3032
15191PP      PP25295  10.001   6.186   4.071  0.0226 -0.3294 -0.0074
15192PP      PP25296   6.091   9.953  10.214 -0.0211  0.0404 -0.3055
15193PP      PP25297   3.647   4.822  10.196 -0.0303  0.2447  0.1055
15194PP      PP25298   4.685   9.979   0.203  0.0662  0.1653 -0.1815
15195PP      PP25299   9.243   7.123   4.354 -0.0888 -0.0675 -0.2588
15196PP      PP25300   1.873   5.667   5.100  0.1328  0.0125  0.0664
15197PP      PP25301   8.471  13.877  12.792  0.0361 -0.7345  0.3272
15198PP      PP25302  11.228  14.918   8.505  0.4653  0.0421 -0.0627
15199PP      PP25303   5.034   5.713   2.211  0.0346 -0.0157  0.0400
15200PP      PP25304   1.655   9.986   2.016 -0.0983 -0.1053  0.0000
15201PP      PP25305   1.939   8.248  13.283 -0.3129 -0.0445  0.1307
15202PP      PP25306   1.188   0.299   2.389 -0.2538 -0.0975  0.1568
15203PP      PP25307   3.419   6.524   1.333  0.0982 -0.1696  0.0142
15204PP      PP25308   0.389   3.457   3.025 -0.0908 -0.0516  0.1783
15205PP      PP25309  12.541   0.958   2.627 -0.0591 -0.0356  0.2075
15206PP      PP25310   3.956  10.489   3.572  0.0775  0.0130  0.1318
15207PP      PP25311   3.946   1.266   9.125  0.0706 -0.1662 -0.2300
15208PP      PP25312  11.787   6.182  12.244 -0.0817 -0.1742  0.0631
15209PP      PP25313   5.390  15.169   3.034 -0.0414  0.0350 -0.1818
15210PP      PP25314  10.300  12.404  11.676 -0.0286  0.1058  0.1309
15211PP      PP25315   3.136   8.875  11.766 -0.0725 -0.0231 -0.1597
15212PP      PP25316   7.725   5.223  10.790 -0.2266  0.0667 -0.0392
15213PP      PP25317   8.848   9.590   3.571 -0.1205 -0.1121  0.0639
15214PP      PP25318   4.391   4.960  12.178  0.0064 -0.2846  0.1621
15215PP      PP25319   3.443   6.802  12.686  0.1472  0.0261  0.3576
15216PP      PP25320   0.890   8.561  12.028 -0.1656 -0.0131 -0.1322
15217PP      PP25321  12.423  11.444   9.603  0.0110  0.1619  0.1702
15218PP      PP25322   8.635  14.519   9.646  0.1203  0.0075 -0.4090
15219PP      PP25323   7.857   4.252  12.367  0.1917  0.0287 -0.0945
15220PP      PP25324   1.303   5.917   1.416 -0.1017  0.3894  0.1657
15221PP      PP25325   9.473   3.568  11.587 -0.0236  0.0320  0.2508
15222PP      PP25326   5.463   2.472  10.687  0.0522 -0.0855  0.1193
15223PP      PP25327  13.229   2.961  11.582  0.1964 -0.0915  0.1932
15224PP      PP25328  14.500   0.026  11.655  0.0751 -0.0324 -0.1384
15225PP      PP25329   6.779  12.645  11.248 -0.0791  0.0966  0.0996
15226PP      PP25330   9.816   0.010  12.728  0.3117 -0.0852  0.0194
15227PP      PP25331   1.979  14.090   3.468 -0.0171  0.0439  0.1645
15228PP      PP25332   9.140   9.822  11.308  0.3290 -0.1152  0.0332
15229PP      PP25333   3.734  12.556   1.349 -0.1471  0.0160  0.0088
15230PP      PP25334  14.822   9.216  11.663 -0.2853  0.2407 -0.0268
15231PP      PP25335   1.393   2.493   9.101 -0.1426  0.0799  0.2333
15232PP      PP25336   8.352   6.555  11.935  0.0070  0.1468  0.1500
15233PP      PP25337   6.697   2.236   4.097 -0.4691 -0.0989  0.2272
15234PP      PP25338   8.172   3.043  10.567 -0.2895  0.1465 -0.1960
15235PP      PP25339  12.045  14.910   3.398 -0.0363 -0.4797 -0.0080
15236PP      PP25340  14.170   3.587   0.058 -0.0791  0.2414  0.4925
15237PP      PP25341   2.542   0.612  11.570 -0.3828  0.0263 -0.2136
15238PP      PP25342   5.257   8.104   9.778 -0.3138  0.2559 -0.3212
15239PP      PP25343   0.203   5.776   3.667 -0.0707 -0.0294  0.2008
15240PP      PP25344   5.182   3.107   9.387  0.3067  0.0853 -0.0238
15241PP      PP25345   3.427   9.429   4.154  0.0118  0.1819 -0.0515
15242PP      PP25346  15.232   9.970   0.154  0.0445  0.1138 -0.0025
15243PP      PP25347   4.750  12.815  11.643  0.0007 -0.1239 -0.4034
15244PP      PP25348   8.682  13.710  10.038 -0.0347  0.3811  0.0080
15245PP      PP25349   6.465   6.315   4.375  0.2609 -0.0009 -0.0672
15246PP      PP25350  10.507   6.000   0.524 -0.0334  0.2281 -0.2539
15247PP      PP25351   9.760   1.556  10.229  0.0205 -0.1678 -0.0833
15248PP      PP25352   1.400  10.703  10.296 -0.2675 -0.3634  0.0356
15249PP      PP25353   0.813   1.375   2.651 -0.3617 -0.2024  0.0455
15250PP      PP25354  12.154  15.678   2.892  0.0978 -0.2140  0.0708
15251PP      PP25355  11.878   8.169   9.746  0.1060  0.1757 -0.4122
15252PP      PP25356  11.894  10.168   0.783  0.0147  0.1361 -0.2338
15253PP      PP25357   6.818   8.841   4.584  0.0616 -0.2993 -0.1435
15254PP      PP25358   0.517   8.089   1.599 -0.1751  0.1247  0.3791
15255PP      PP25359   0.372   8.844  12.643 -0.0137  0.0746 -0.0754
15256PP      PP25360   7.687   3.445   4.377  0.0001 -0.2200  0.1158
15257PP      PP25361   5.373   9.527   2.424  0.1834 -0.2880  0.0533
15258PP      PP25362  15.380   6.676  10.156  0.0810  0.2030  0.0119
15259PP      PP25363   5.605   9.888   0.465  0.0746  0.0552  0.0382
15260PP      PP25364   0.586  15.054   2.791  0.1179 -0.0356  0.1639
15261PP      PP25365   6.960  13.422  10.980 -0.1459  0.0033 -0.2261
15262PP      PP25366   4.015  15.747   0.901  0.2477 -0.2634 -0.1196
15263PP      PP25367  15.525  10.004  11.285 -0.1292 -0.0592 -0.0736
15264PP      PP25368   7.957   4.995   4.416  0.2416  0.4683 -0.0662
15265PP      PP25369   1.486   8.028   3.789  0.2360 -0.0267 -0.0181
15266PP      PP25370   7.092   3.449   9.131 -0.0675 -0.2472  0.2674
15267PP      PP25371  13.725   3.041   1.414  0.4498  0.0544  0.3805
15268PP      PP25372   0.542  10.102  11.227  0.0337 -0.1457 -0.3873
15269PP      PP25373  14.882   7.357  10.654  0.0875 -0.3390 -0.3978
15270PP      PP25374   8.060   4.414   3.834  0.0304  0.1254 -0.1170
15271PP      PP25375   5.219   8.848  11.348  0.1048 -0.1433  0.0296
15272PP      PP25376   0.784  11.563   3.984 -0.1654  0.2782 -0.0016
15273PP      PP25377   1.726   0.313  11.752 -0.1938  0.1374  0.3048
15274PP      PP25378   7.705  11.627   2.991 -0.2250 -0.0461  0.1722
15275PP      PP25379   4.753   9.730  10.551  0.1585  0.2201  0.1443
15276PP      PP25380   9.949   3.078   0.119  0.2176 -0.0477  0.5334
15277PP      PP25381   9.957   2.051   3.638 -0.2189  0.3001  0.3429
15278PP      PP25382   8.791   3.627  11.253 -0.0152  0.0295 -0.1320
15279PP      PP25383   5.419   2.406   2.576 -0.3194 -0.2707 -0.3354
15280PP      PP25384  13.054  13.729   0.807  0.1336  0.1338 -0.0666
15281PP      PP25385   3.421   7.359  11.117  0.1306 -0.0134  0.0035
15282PP      PP25386   3.121  13.778  11.596  0.0271 -0.0495  0.0465
15283PP      PP25387   1.522   5.670  12.503 -0.0693  0.2498  0.1235
15284PP      PP25388   6.772   7.511   3.444 -0.1843  0.1800 -0.2181
15285PP      PP25389   1.266   1.787  12.961  0.1856  0.0978 -0.1047
15286PP      PP25390  11.191   5.675   4.074  0.0559 -0.0412  0.2275
15287PP      PP25391   3.935  10.698   9.985  0.0558  0.1732 -0.3048
15288PP      PP25392  15.440   4.743   9.773  0.0786 -0.1661  0.4133
15289PP      PP25393   0.616   7.430   3.829  0.1118  0.0231 -0.0291
15290PP      PP25394   5.747  15.629  10.600  0.3587 -0.2052 -0.2195
15291PP      PP25395   7.499  13.937  11.555  0.1207  0.0760 -0.2557
15292PP      PP25396   4.894  14.074   4.116  0.0167 -0.0089 -0.1576
15293PP      PP25397   0.315  10.371   4.447  0.0931 -0.0444  0.1809
15294PP      PP25398  12.961   7.626   3.231 -0.0383 -0.2440  0.0484
15295PP      PP25399   8.319   3.108   3.512  0.0611 -0.2235  0.0179
15296PP      PP25400   2.014  13.832   0.429  0.1600 -0.0100  0.0225
15297PP      PP25401   1.892   0.808   3.768  0.1548  0.2748  0.0203
15298PP      PP25402   9.356  12.706  11.152  0.4216  0.0262  0.1080
15299PP      PP25403  11.550   4.075  13.402  0.2824  0.1111 -0.0249
15300PP      PP25404  13.920   8.549   3.374  0.2790 -0.0455  0.0508
15301PP      PP25405   7.426  11.974   9.272 -0.0589 -0.1519 -0.1344
15302PP      PP25406  12.882  12.880   1.760 -0.0116  0.2312 -0.0135
15303PP      PP25407   2.648   6.372   3.349  0.0353 -0.3941 -0.3018
15304PP      PP25408   5.545   7.996   1.393 -0.1751  0.2493 -0.2256
15305PP      PP25409  10.032   8.579  13.325  0.2087 -0.3501  0.0993
15306PP      PP25410   3.166   9.911  11.829 -0.1010 -0.0224  0.5201
15307PP      PP25411   3.227   6.798   1.695  0.0417 -0.0916  0.2425
15308PP      PP25412   8.932  13.298   4.073 -0.0940 -0.2312  0.0952
15309PP      PP25413   5.849  15.382   0.425 -0.1858  0.1333 -0.1907
15310PP      PP25414   7.246  12.189  13.390 -0.2333  0.2288 -0.0961
15311PP      PP25415  13.892   4.133  10.982 -0.0733 -0.3396  0.2383
15312PP      PP25416   3.758   3.415   1.180 -0.1280 -0.1635  0.2182
15313PP      PP25417   8.195  14.800  12.904 -0.0935  0.3683 -0.0912
15314PP      PP25418   6.966   3.088  11.543  0.0465  0.1472 -0.2471
15315PP      PP25419   8.627   1.479   2.364 -0.2311  0.1493  0.0804
15316PP      PP25420   1.680  11.051   0.389 -0.3565 -0.1076 -0.2466
15317PP      PP25421  14.269   4.850   1.101 -0.2005 -0.1363  0.0598
15318PP      PP25422  12.559  11.238   2.065 -0.1670 -0.0807 -0.0238
15319PP      PP25423   0.895   3.528   0.568 -0.0278 -0.0240  0.4046
15320PP      PP25424   8.841  14.306   3.150  0.0078  0.0447 -0.3549
15321PP      PP25425  14.358  12.682  13.435 -0.2300 -0.1269 -0.0290
15322PP      PP25426   6.298   1.341   1.328  0.2798  0.1755  0.2088
15323PP      PP25427   7.840   1.981   2.312  0.2511  0.1565 -0.1716
15324PP      PP25428   2.788   2.099  11.521 -0.2088  0.3962 -0.0132
15325PP      PP25429  11.979  10.357  11.833  0.2997 -0.4312  0.1897
15326PP      PP25430  12.489  11.763  12.519  0.1162 -0.0957  0.2857
15327PP      PP25431   2.464   1.323   9.935  0.3163  0.1859  0.2109
15328PP      PP25432   0.140  12.888   3.829  0.0732 -0.0553  0.0847
15329PP      PP25433   2.405  15.656  10.174  0.0260 -0.0206 -0.2784
15330PP      PP25434  15.556  10.688   1.383  0.1034  0.3465  0.1093
15331PP      PP25435  14.180  13.694   3.291  0.1617 -0.2123  0.3127
15332PP      PP25436  13.280   8.746   4.851  0.2871  0.0570  0.2184
15333PP      PP25437   2.651   4.420   0.034 -0.0458  0.1212  0.0550
15334PP      PP25438  12.285   4.743  12.895  0.0066  0.0124 -0.2163
15335PP      PP25439   0.644  10.406   1.230 -0.0963 -0.1078  0.2782
15336PP      PP25440   3.437   8.694  11.410  0.0191  0.2570  0.3081
15337PP      PP25441   4.731   8.276   4.252  0.1293  0.1246 -0.0171
15338PP      PP25442  12.477   2.375  10.842  0.1120 -0.0413 -0.2153
15339PP      PP25443  13.096  11.480  11.848  0.0390  0.1781  0.1211
15340PP      PP25444   1.621  11.550   4.752 -0.0605 -0.1920  0.3930
15341PP      PP25445  10.340  13.483  10.999 -0.0346 -0.2103  0.0415
15342PP      PP25446   4.354   2.960  11.124  0.2224 -0.0973 -0.1790
15343PP      PP25447  14.140   5.678   2.467 -0.3145 -0.0270 -0.0176
15344PP      PP25448   5.110  15.063   0.037  0.1876 -0.2454 -0.1426
15345PP      PP25449  12.326  14.181   1.564 -0.1169 -0.0994 -0.0343
15346PP      PP25450   9.874   9.017   1.722 -0.4327  0.3194  0.0790
15347PP      PP25451  10.040   5.052  11.519  0.1685  0.0865  0.0200
15348PP      PP25452   7.020   6.827   0.917  0.0466 -0.3067  0.0403
15349PP      PP25453   1.287   7.590   5.278  0.2750  0.1376 -0.0943
15350PP      PP25454   1.882  14.689   1.281 -0.2612 -0.2714 -0.0539
15351PP      PP25455  15.240   2.865   2.198  0.2077 -0.0260  0.0127
15352PP      PP25456  15.813   1.468  12.177 -0.3329  0.0106  0.1234
15353PP      PP25457   9.091   1.953   0.251 -0.3018 -0.1471  0.2331
15354PP      PP25458   6.571   1.529  11.536 -0.0731  0.0325  0.0585
15355PP      PP25459   6.442   6.292  13.019 -0.0056  0.0451 -0.1259
15356PP      PP25460   8.443   2.889   3.053  0.1084 -0.1885 -0.0175
15357PP      PP25461   5.930   0.192   8.530 -0.0670 -0.1196  0.1353
15358PP      PP25462   5.402   5.416  11.694  0.2148 -0.0372  0.1995
15359PP      PP25463   2.141   9.385  13.151  0.2260  0.0758  0.0385
15360PP      PP25464   5.440   3.710  11.295 -0.0307 -0.1556 -0.1903
15361PP      PP25465   6.429   9.611  11.044 -0.0835 -0.2478  0.2578
15362PP      PP25466  12.481  13.604   9.342 -0.0747  0.2821  0.2304
15363PP      PP25467   4.288  14.583  10.777  0.0789 -0.0729  0.2052
15364PP      PP25468   3.615  12.462   9.234 -0.0021  0.2065  0.2563
15365PP      PP25469   4.146  15.612   0.314 -0.0235 -0.1160 -0.1760
15366PP      PP25470   2.119  11.810   0.514  0.1647 -0.0905  0.2263
15367PP      PP25471  12.224  15.716   1.121  0.1300 -0.0146  0.0896
15368PP      PP25472   8.309   6.356   1.648 -0.2529 -0.2850 -0.0938
15369PP      PP25473   0.275  13.628  11.413  0.1479 -0.1314  0.3728
15370PP      PP25474  12.431   6.441   0.506  0.0035 -0.1009  0.0623
15371PP      PP25475  12.344   4.633  12.007 -0.0192 -0.2107  0.2095
15372PP      PP25476   8.198  13.554   0.363 -0.2572  0.1305  0.2570
15373PP      PP25477  13.144  11.518   0.205  0.3387 -0.0508 -0.6105
15374PP      PP25478   6.713  11.593   3.379  0.0554 -0.0116  0.0301
15375PP      PP25479  14.648  15.362  12.384 -0.2522 -0.1575  0.0712
15376PP      PP25480   5.266  11.967  12.770 -0.1833  0.1565 -0.0073
15377PP      PP25481   9.259   5.403  11.894  0.2572  0.0599  0.0784
15378PP      PP25482   8.423  15.181  12.664 -0.1296 -0.2195 -0.3290
15379PP      PP25483   4.525  15.685  12.587  0.0986 -0.1394 -0.2939
15380PP      PP25484  13.245  11.381  13.177 -0.0681  0.1532  0.1233
15381PP      PP25485   2.706  14.286  12.312 -0.1762  0.1347 -0.1288
15382PP      PP25486   5.516   1.432   9.537 -0.1209  0.0754  0.0034
15383PP      PP25487   9.020   5.825   0.303  0.4348 -0.0884  0.1475
15384PP      PP25488   8.433  12.114  10.865  0.2197  0.1376 -0.2542
15385PP      PP25489   4.336   3.208  11.794  0.1431  0.1184  0.1101
15386PP      PP25490  14.961  10.205   2.038 -0.0911  0.1253 -0.4182
15387PP      PP25491   8.478   9.477  10.656  0.0650 -0.1370  0.0222
15388PP      PP25492  12.718  12.799  11.722  0.0033  0.0463 -0.1171
15389PP      PP25493   1.179   1.782   1.073  0.1851  0.0702 -0.0539
15390PP      PP25494   2.515   8.155  12.902 -0.1337  0.0496 -0.0355
15391PP      PP25495  10.980  10.343   2.413 -0.3605  0.1460  0.3198
15392PP      PP25496   9.866  12.075   4.112  0.0991 -0.2180 -0.2352
15393PP      PP25497   2.237   8.102  10.194  0.0496 -0.0549  0.3947
15394PP      PP25498   5.350   3.663   0.843 -0.0262 -0.1926 -0.0747
15395PP      PP25499   3.539   8.314   0.246 -0.0600  0.1357  0.0885
15396PP      PP25500  11.501  14.837  13.247  0.1595 -0.3505 -0.1503
15397PP      PP25501   2.631  11.345  11.550  0.2384 -0.3390  0.0718
15398PP      PP25502   2.960   2.957  11.340  0.3946  0.0137 -0.0003
15399PP      PP25503  15.494   7.687   1.364 -0.1981  0.0169 -0.1010
15400PP      PP25504   9.668   6.418  11.636  0.1019  0.0764  0.1641
15401PP      PP25505   9.607   5.665   0.751 -0.0481  0.0686  0.4960
15402PP      PP25506  10.706   4.515   7.886 -0.5263  0.0703  0.1089
15403PP      PP25507   1.076   6.291   2.808  0.0654  0.0727  0.1639
15404PP      PP25508   2.804  15.756  11.120 -0.0328  0.0586  0.3386
15405PP      PP25509   9.367   1.132  13.205 -0.2136 -0.3547  0.0678
15406PP      PP25510   9.240  15.489   0.835 -0.0022  0.0730 -0.0372
15407PP      PP25511   3.829  11.364   2.249  0.0126  0.0209  0.0850
15408PP      PP25512   7.376   4.948  13.318 -0.0463  0.2415 -0.1052
15409PP      PP25513  11.496   0.182   0.013 -0.0252 -0.4094  0.1725
15410PP      PP25514  10.460   4.954   1.175  0.0482 -0.0895  0.0725
15411PP      PP25515   4.464   7.151   0.776  0.0825 -0.0805  0.0756
15412PP      PP25516  11.138   4.121  10.439  0.2469 -0.3374  0.0652
15413PP      PP25517  14.821  14.428   1.684 -0.0050  0.2970 -0.2450
15414PP      PP25518  10.573   4.525   4.450  0.0708 -0.0262  0.2502
15415PP      PP25519  12.613  14.821   3.054 -0.0494  0.1131 -0.2566
15416PP      PP25520  11.720  14.368   8.666  0.1108  0.1952 -0.1318
15417PP      PP25521  14.394  14.500   0.904 -0.0407 -0.2140  0.1470
15418PP      PP25522  11.551  12.727  12.312  0.1863 -0.1291 -0.0669
15419PP      PP25523   2.245   0.965   2.862 -0.2433  0.0507  0.0031
15420PP      PP25524  13.980   0.065  11.853  0.0966 -0.2559  0.2393
15421PP      PP25525  12.273  11.133   0.850  0.1931 -0.3514  0.0405
15422PP      PP25526   5.213   3.059  11.121 -0.2260 -0.2774 -0.0592
15423PP      PP25527   3.256  13.214  10.295  0.1845 -0.1857 -0.2721
15424PP      PP25528   4.503   9.915  10.932  0.1584  0.2025 -0.1657
15425PP      PP25529   9.835  13.704   9.405 -0.2165 -0.2313  0.0616
15426PP      PP25530  11.495   5.685   3.162  0.0796 -0.0589  0.0066
15427PP      PP25531  13.845  14.240   2.942 -0.1498  0.0035  0.1181
15428PP      PP25532   4.238  14.282   4.362  0.0874 -0.1990 -0.1006
15429PP      PP25533   2.818   0.090   9.534 -0.2098  0.1896  0.1773
15430PP      PP25534  13.390   9.601   9.772 -0.1042  0.0745  0.0576
15431PP      PP25535   3.457   4.740  12.945 -0.0330  0.0143 -0.0670
15432PP      PP25536   5.931  10.855   2.537  0.0057  0.0435  0.0800
15433PP      PP25537  12.696   6.298   0.068  0.0933  0.0098  0.1282
15434PP      PP25538   0.643   0.943   8.927 -0.2438 -0.0603 -0.0469
15435PP      PP25539   9.099  12.301  10.169 -0.1047 -0.0779 -0.2776
15436PP      PP25540   7.189   6.710  10.797  0.1033  0.0560  0.0572
15437PP      PP25541  11.309   4.064   4.224 -0.0732  0.1203  0.4258
15438PP      PP25542   6.481  15.092  12.314 -0.2518  0.1449 -0.0633
15439PP      PP25543   6.571   1.425   8.656  0.1448  0.1965 -0.0228
15440PP      PP25544   3.908  15.382  12.978 -0.0656  0.0418  0.0508
15441PP      PP25545   6.474   2.362   8.691  0.3033 -0.4395 -0.0609
15442PP      PP25546  11.959   3.304   3.109 -0.2442 -0.0120  0.0174
15443PP      PP25547   9.952   8.847  10.071 -0.0712  0.0913 -0.0889
15444PP      PP25548   5.054   3.736  11.856 -0.3555 -0.1725 -0.1535
15445PP      PP25549   1.884  12.719   0.765 -0.0838 -0.0916 -0.2161
15446PP      PP25550  14.025  12.715  13.037 -0.1559  0.0510  0.0666
15447PP      PP25551   3.408   1.608  10.121  0.1432  0.0687  0.0372
15448PP      PP25552   9.283   2.071   1.702  0.2956 -0.2018 -0.0545
15449PP      PP25553  10.542  11.113   9.342 -0.0729 -0.0151 -0.1920
15450PP      PP25554   7.221   2.479   8.632 -0.0295  0.1365 -0.2738
15451PP      PP25555  11.276  10.448   3.409  0.1896 -0.1169  0.2610
15452PP      PP25556  12.937  12.489   4.058 -0.1784 -0.0126  0.2184
15453PP      PP25557  15.636   5.217  12.337  0.0889 -0.1518 -0.0453
15454PP      PP25558   8.552  13.902   0.535 -0.4079  0.0463 -0.1852
15455PP      PP25559   2.136  15.041   4.535 -0.2148 -0.3542  0.1748
15456PP      PP25560  14.161   1.548   3.608  0.2581 -0.0502 -0.1701
15457PP      PP25561   9.124   4.862   9.311 -0.1794  0.1805  0.2626
15458PP      PP25562   1.047  11.702   9.114  0.0630  0.4174  0.1139
15459PP      PP25563  10.901  12.352   8.948  0.0003  0.0442 -0.1472
15460PP      PP25564   4.671   0.679   9.086 -0.0172  0.2706  0.0477
15461PP      PP25565   1.051   7.050   0.033  0.2740 -0.1327 -0.0620
15462PP      PP25566  14.891   2.301   0.243 -0.1001  0.2592  0.1081
15463PP      PP25567   9.395  11.924   0.749  0.0973  0.4398 -0.0204
15464PP      PP25568  15.664   9.277  11.335  0.1054  0.0257 -0.1202
15465PP      PP25569   9.421   0.059   1.036 -0.0589 -0.0300 -0.1970
15466PP      PP25570   0.373   6.363   0.454  0.0229 -0.1592  0.0454
15467PP      PP25571   1.585   2.934   9.042 -0.2501  0.2263  0.0451
15468PP      PP25572   9.651  12.536  10.712  0.0665 -0.0474 -0.0611
15469PP      PP25573   2.357   8.709   4.675  0.2406  0.1170  0.0900
15470PP      PP25574   5.400  12.785   2.929 -0.2057  0.0068  0.2130
15471PP      PP25575   1.948  10.559  13.243  0.2483  0.0033  0.0872
15472PP      PP25576   6.017   3.613   0.124 -0.2549 -0.1005 -0.0290
15473PP      PP25577   6.295  10.330   1.783 -0.2220 -0.0916 -0.1593
15474PP      PP25578  13.926  11.423   9.166 -0.0406  0.0675  0.0759
15475PP      PP25579   8.779   3.030   2.719  0.2708 -0.1488 -0.1822
15476PP      PP25580  10.786   9.121   1.606  0.1392 -0.3049  0.0476
15477PP      PP25581   1.627  12.344   9.406  0.1129  0.0575 -0.1250
15478PP      PP25582   8.108  12.526   3.235 -0.3310  0.2535 -0.1113
15479PP      PP25583  15.713   7.529   2.829  0.0567 -0.1381 -0.2274
15480PP      PP25584   5.757   6.176  10.340  0.1007  0.0937 -0.1559
15481PP      PP25585  11.872  15.041   9.407  0.1314 -0.3644  0.2975
15482PP      PP25586   7.134  11.881   1.747 -0.4377 -0.3359  0.5362
15483PP      PP25587   6.291  14.835  11.371 -0.0397 -0.1385  0.2031
15484PP      PP25588  12.109   8.111  12.578  0.1365  0.1900 -0.1201
15485PP      PP25589   4.419  10.390  10.876  0.0958 -0.0766 -0.0152
15486PP      PP25590   9.121  13.054   1.798 -0.0862 -0.0452 -0.1535
15487PP      PP25591   9.242   0.167  12.822 -0.3387 -0.1351 -0.1836
15488PP      PP25592  10.752   3.156   9.443  0.0350  0.1419  0.1416
15489PP      PP25593  15.373   9.484  10.418  0.0328  0.2871  0.3799
15490PP      PP25594   2.130   9.139   0.992  0.0691 -0.2026 -0.2149
15491PP      PP25595   0.763  15.700  10.774 -0.1801  0.1793  0.2016
15492PP      PP25596  11.012  10.840   2.147  0.2722 -0.1536 -0.2043
15493PP      PP25597   0.992   0.028   3.091  0.0041  0.0021 -0.1964
15494PP      PP25598   5.025  13.230  11.573  0.1518 -0.1197 -0.3051
15495PP      PP25599   9.589  10.454  11.566 -0.1146 -0.0344 -0.0522
15496PP      PP25600   7.356  10.743  11.685  0.0732 -0.3035 -0.1464
15497PP      PP25601   7.974  12.578   9.488  0.1799 -0.2048 -0.1417
15498PP      PP25602   2.417   7.574   4.039 -0.3039 -0.0964  0.1816
15499PP      PP25603   8.981   8.751   4.260 -0.2120 -0.1144  0.0676
15500PP      PP25604   0.592   4.960  13.149  0.1714 -0.2447  0.0205
15501PP      PP25605  15.656   8.682  10.272 -0.0298  0.1092 -0.1788
15502PP      PP25606  15.210   6.918  12.897 -0.1838  0.1167 -0.2700
15503PP      PP25607  15.464   2.711  12.507  0.0667  0.3366 -0.1597
15504PP      PP25608   3.871  12.405   9.724  0.1906 -0.1219  0.3574
15505PP      PP25609   7.989   2.979  12.653  0.2283  0.0059 -0.0928
15506PP      PP25610   1.762  10.926  11.080  0.1664 -0.2424  0.1568
15507PP      PP25611  14.942  14.249   2.118  0.2536 -0.0112 -0.3137
15508PP      PP25612  12.770  12.164   3.542 -0.2693 -0.1575 -0.1310
15509PP      PP25613   7.262  12.437  10.085  0.0012  0.2206  0.0388
15510PP      PP25614   8.629  10.394  10.308  0.0999  0.1458  0.0308
15511PP      PP25615   1.228   0.826   3.653 -0.1708 -0.1493 -0.1883
15512PP      PP25616   5.737   0.454   0.415 -0.1690 -0.2565  0.0417
15513PP      PP25617   0.626  13.829   3.439  0.3770 -0.3075 -0.2250
15514PP      PP25618  12.637   5.800   1.832  0.0513  0.0584  0.0344
15515PP      PP25619  14.594  11.162   3.642 -0.3122  0.0300  0.2111
15516PP      PP25620   2.451   6.258  13.398 -0.0114  0.2160 -0.1777
15517PP      PP25621  13.524  10.767  12.691  0.1102  0.0698  0.2225
15518PP      PP25622   6.553  13.950   2.153 -0.0148  0.0087 -0.2499
15519PP      PP25623   5.138  15.667   1.124  0.1474  0.0937  0.1676
15520PP      PP25624   2.027  12.083   4.300 -0.1179 -0.0365 -0.0506
15521PP      PP25625   2.330   1.233  13.114 -0.0329 -0.2115 -0.1922
15522PP      PP25626   1.846  12.966   4.297 -0.0693  0.0843 -0.0693
15523PP      PP25627   9.823  13.166   9.314  0.0293  0.0905 -0.1008
15524PP      PP25628   4.018  10.258   4.542  0.1352 -0.0514  0.1896
15525PP      PP25629  12.058   2.069   4.377  0.1837 -0.1610 -0.0733
15526PP      PP25630  10.080   7.093   2.249  0.0061  0.0911  0.1817
15527PP      PP25631  12.042   9.658   2.936 -0.1068 -0.0532 -0.0726
15528PP      PP25632   6.801   2.243  10.142 -0.0005 -0.0562 -0.1092
15529PP      PP25633   3.785   1.110   0.647 -0.1995  0.1027  0.0005
15530PP      PP25634   6.612  13.065  12.790  0.2157 -0.0018 -0.2238
15531PP      PP25635   3.841   8.950  11.106  0.0213 -0.0522 -0.0167
15532PP      PP25636  10.389  13.825   2.569  0.1287 -0.0552  0.0978
15533PP      PP25637   3.281   0.406  13.202  0.0894  0.1410  0.0152
15534PP      PP25638   3.131   9.526   1.087  0.0005  0.0079 -0.0453
15535PP      PP25639  12.982   8.371   3.882 -0.1330 -0.2150 -0.5569
15536PP      PP25640   2.441  11.055   4.694 -0.2389 -0.1153  0.2260
15537PP      PP25641  15.136   6.682   0.531  0.0771 -0.2727 -0.0938
15538PP      PP25642   9.662   8.080   9.050 -0.0666 -0.1043 -0.0700
15539PP      PP25643  12.388   8.453   9.924 -0.0212 -0.3888 -0.0330
15540PP      PP25644   7.039   1.030   0.769  0.0119 -0.0919 -0.1271
15541PP      PP25645   0.079   7.251   0.195  0.0089  0.1004 -0.2741
15542PP      PP25646   5.455   0.313   1.923 -0.2345 -0.1030 -0.0424
15543PP      PP25647   3.599   4.881   2.966  0.1231  0.2355 -0.1568
15544PP      PP25648  15.291   7.846   2.714  0.0806  0.1436 -0.0301
15545PP      PP25649   2.540   7.479   3.514  0.2191 -0.3880 -0.3057
15546PP      PP25650  15.495   5.780  11.324 -0.1350 -0.1618  0.2421
15547PP      PP25651   0.592   1.797   2.516 -0.0624 -0.1158  0.1231
15548PP      PP25652   6.832  10.083   1.834  0.2899 -0.0024  0.0362
15549PP      PP25653  10.636   4.402  12.519  0.2903  0.1515  0.2337
15550PP      PP25654   8.111  15.444   9.507 -0.0555  0.1580 -0.0341
15551PP      PP25655   4.557   9.697   3.449 -0.1952  0.1258  0.1516
15552PP      PP25656   5.150  13.755  11.322  0.0175 -0.1163 -0.0550
15553PP      PP25657   1.218   5.999   3.617  0.0748  0.0554  0.0233
15554PP      PP25658   3.341   0.626   1.961 -0.0825  0.0354  0.3952
15555PP      PP25659   2.865  14.876   9.238  0.4070  0.0463  0.2306
15556PP      PP25660   8.834  13.553  11.076 -0.2865  0.2193 -0.4433
15557PP      PP25661   9.176   0.880   9.603  0.0232  0.2471 -0.0098
15558PP      PP25662   0.065   3.529  12.428  0.0755 -0.0432  0.0224
15559PP      PP25663   5.946  14.667   4.532  0.2614 -0.1025 -0.0705
15560PP      PP25664  10.456   0.279   1.865  0.2565 -0.1315  0.2003
15561PP      PP25665  10.178  11.833  13.288  0.5222  0.2345 -0.2513
15562PP      PP25666   1.718  13.153   9.208 -0.0022  0.1876  0.1250
15563PP      PP25667   0.753   7.451  10.341  0.1085  0.1213  0.1529
15564PP      PP25668   8.518  15.609   3.629  0.2179 -0.1947 -0.0869
15565PP      PP25669   7.388   7.419  11.528  0.0729 -0.3712 -0.0969
15566PP      PP25670  10.383   0.367   3.429  0.0396  0.2181 -0.2665
15567PP      PP25671  11.954   5.099   0.277 -0.1159 -0.1956 -0.1974
15568PP      PP25672   1.700   8.464   1.533 -0.0465 -0.2344  0.0485
15569PP      PP25673   6.914   2.102   9.208  0.2834  0.3329  0.1260
15570PP      PP25674   4.404   1.930  13.136  0.0414 -0.0157  0.2595
15571PP      PP25675  15.356  11.126   9.113  0.1154  0.0681  0.1267
15572PP      PP25676  15.207  13.871   4.059 -0.1007 -0.1265 -0.4871
15573PP      PP25677   2.807  10.565  11.814 -0.0232  0.0192  0.0393
15574PP      PP25678  12.143   9.561   1.975 -0.0292  0.0252 -0.1492
15575PP      PP25679  14.947   7.822   9.900  0.1590  0.1520  0.2307
15576PP      PP25680  14.150   1.803   0.001 -0.0210 -0.1244 -0.0404
15577PP      PP25681  11.589  14.320   2.279  0.0544  0.2313  0.1458
15578PP      PP25682  15.768   7.054  11.908 -0.0322 -0.1624  0.1230
15579PP      PP25683  15.644   7.449   0.955 -0.1248 -0.1330  0.1157
15580PP      PP25684   7.386  13.610   0.246 -0.0789 -0.1788 -0.1050
15581PP      PP25685  12.552   5.565   1.058  0.1182  0.1555  0.1214
15582PP      PP25686   9.831   6.875  10.442 -0.2641  0.0470  0.2701
15583PP      PP25687  10.434  14.632  12.502 -0.0993 -0.1259  0.1371
15584PP      PP25688   6.289   8.942   4.496 -0.0632 -0.0247 -0.0305
15585PP      PP25689   6.382   7.594  12.318  0.2641 -0.2212 -0.0777
15586PP      PP25690   0.507  12.849   0.570  0.0253 -0.1007 -0.1983
15587PP      PP25691   1.172   3.281   8.863  0.0625 -0.0616 -0.0253
15588PP      PP25692   0.402   8.153   0.071 -0.1453 -0.0729 -0.1725
15589PP      PP25693  11.585  14.447  10.176  0.2563 -0.1275  0.1395
15590PP      PP25694  13.999  11.218   2.038 -0.0612  0.0587  0.0711
15591PP      PP25695   8.438   0.838   3.399 -0.1362 -0.1225 -0.1813
15592PP      PP25696   3.930   7.456  10.991  0.0226  0.0085  0.0896
15593PP      PP25697   3.259   1.402   3.886  0.0493  0.1477 -0.0280
15594PP      PP25698  10.530  10.944   3.613  0.3099 -0.0426  0.0846
15595PP      PP25699   7.167  15.862  12.650 -0.0269  0.1228  0.0120
15596PP      PP25700  12.847   7.473   9.724 -0.1010 -0.2087  0.1018
15597PP      PP25701   7.238  10.654  10.739  0.3296 -0.0038 -0.4193
15598PP      PP25702  11.298  15.386   2.820  0.0680  0.1336  0.1482
15599PP      PP25703   8.589   8.514   0.446  0.1016 -0.0910  0.0573
15600PP      PP25704  14.879  10.020   9.787 -0.0637 -0.2813  0.2342
15601PP      PP25705  11.764  10.238   3.272  0.2715  0.1301  0.0676
15602PP      PP25706  15.363  13.390  12.514  0.1300  0.1213  0.0968
15603PP      PP25707   0.834  13.984   1.176 -0.2401 -0.2853 -0.0392
15604PP      PP25708   4.860  12.848   4.644 -0.0163  0.0240 -0.0396
15605PP      PP25709   5.642   4.569   3.590 -0.3585 -0.1224  0.2127
15606PP      PP25710   7.592   4.043  11.090 -0.1860 -0.3004  0.2170
15607PP      PP25711   0.755   3.909  10.218 -0.1449 -0.1106  0.2284
15608PP      PP25712   5.056   6.420  11.909 -0.0249  0.1166 -0.1295
15609PP      PP25713   7.405   4.936   0.773 -0.1437 -0.1577  0.1867
15610PP      PP25714   1.300   2.760   2.512  0.0380  0.0133 -0.0079
15611PP      PP25715   2.996   9.707   0.170 -0.2340  0.2664  0.0593
15612PP      PP25716   2.128   8.609  10.241  0.1017  0.0659  0.2348
15613PP      PP25717   3.136  14.075   0.588  0.0939 -0.4317 -0.2687
15614PP      PP25718   7.421  10.076   9.799  0.0500 -0.0307 -0.0638
15615PP      PP25719   7.059  13.240  12.580 -0.0633  0.0758  0.1371
15616PP      PP25720   8.595   5.337   3.058  0.0504 -0.0416  0.1790
15617PP      PP25721   8.665   0.338   2.960  0.0242 -0.1139  0.0240
15618PP      PP25722  15.344  14.504   2.889 -0.1583  0.1623  0.1363
15619PP      PP25723   4.552   0.234  11.995  0.1938  0.0987  0.1068
15620PP      PP25724  10.931   0.728  10.757 -0.0843 -0.0673 -0.3018
15621PP      PP25725   7.549  14.960   8.726 -0.0746 -0.0542  0.1372
15622PP      PP25726  11.487  14.698   2.635 -0.0086 -0.3791  0.0407
15623PP      PP25727  14.910  12.292   1.106  0.0136  0.0457 -0.0671
15624PP      PP25728   8.610   4.401   2.057 -0.0680 -0.0267  0.0669
15625PP      PP25729   2.212  12.608   8.838 -0.4309 -0.1738  0.0641
15626PP      PP25730  11.888   7.577   1.511 -0.1427  0.2804  0.1112
15627PP      PP25731  15.689   3.802  10.864  0.2122  0.4624 -0.0378
15628PP      PP25732   1.904   3.744  11.755  0.2015  0.0978  0.0009
15629PP      PP25733  15.079   3.981  10.899  0.1106  0.1373  0.0025
15630PP      PP25734  15.774   8.969   3.951  0.0234 -0.0547  0.2081
15631PP      PP25735   7.691  13.986   0.976 -0.1260  0.2541 -0.3801
15632PP      PP25736   3.522  11.013  11.191 -0.2084 -0.3663  0.0998
15633PP      PP25737   2.681   1.708   4.652  0.1272 -0.3027  0.0495
15634PP      PP25738  15.784   3.264  13.201 -0.1510 -0.0643  0.3974
15635PP      PP25739   0.419  11.492  11.617  0.0090 -0.0780  0.2915
15636PP      PP25740  10.169   4.359  12.642  0.0727  0.1166  0.0204
15637PP      PP25741  10.023   0.492   0.090  0.0931  0.2244 -0.1120
15638PP      PP25742   2.876  15.160   3.317 -0.1196  0.1996  0.0531
15639PP      PP25743  15.532   8.617  12.763  0.0646  0.0194 -0.0035
15640PP      PP25744  11.473   0.468  10.699  0.1912  0.0807 -0.1134
15641PP      PP25745  10.637   2.222   3.557  0.0749  0.0663  0.0500
15642PP      PP25746   4.253   5.791   0.929 -0.1658  0.1972  0.0178
15643PP      PP25747  10.152  10.430   3.434  0.0013 -0.2209 -0.3781
15644PP      PP25748  11.640   1.797   4.785  0.0284 -0.4033 -0.1391
15645PP      PP25749   2.069   3.718   4.327  0.0004  0.0612 -0.0402
15646PP      PP25750  10.877   2.916  12.329  0.0339 -0.2417  0.1048
15647PP      PP25751  14.003   3.397   4.822 -0.4610 -0.1039  0.1571
15648PP      PP25752   7.790  15.016   1.700  0.0225 -0.2026 -0.0389
15649PP      PP25753  14.438   3.179  11.799 -0.1960 -0.1769 -0.0616
15650PP      PP25754   7.586   1.780  10.357 -0.1335  0.1016 -0.0803
15651PP      PP25755   4.005   9.462   2.891 -0.0934  0.2452  0.2931
15652PP      PP25756   8.515   4.554  11.610  0.0737  0.2104  0.2477
15653PP      PP25757  15.661   3.492   9.847 -0.2414  0.4103 -0.3937
15654PP      PP25758   5.368   6.253   1.655  0.1101 -0.1361 -0.0330
15655PP      PP25759  13.422   7.645   9.761  0.0980  0.0649  0.0005
15656PP      PP25760   2.239  12.818  11.945  0.2493 -0.1469 -0.0990
15657PP      PP25761   9.144   3.302  11.172  0.1544 -0.1152  0.0027
15658PP      PP25762  10.535  15.418  11.348  0.0548  0.0149 -0.2073
15659PP      PP25763   2.401  10.849  10.377 -0.0195 -0.0175 -0.2318
15660PP      PP25764  15.135  15.054  10.056 -0.0385 -0.3514 -0.1504
15661PP      PP25765  13.403  15.615   3.520 -0.3355 -0.0887 -0.0134
15662PP      PP25766  11.768   5.348  11.002 -0.2728 -0.0256 -0.3808
15663PP      PP25767   9.736   6.196  12.680 -0.5567  0.1788 -0.0790
15664PP      PP25768   6.760   4.738   2.683  0.1105 -0.2723  0.2516
15665PP      PP25769   2.884   4.316   3.245  0.0481  0.2030 -0.1960
15666PP      PP25770  14.519   7.661  11.903  0.0276  0.4438  0.4323
15667PP      PP25771   2.975   5.780   2.708  0.1180 -0.1363  0.1464
15668PP      PP25772   4.564   6.143   2.249  0.0141  0.1992 -0.3788
15669PP      PP25773  10.705   8.636   4.442 -0.2502  0.0729  0.1301
15670PP      PP25774   9.720   4.696  11.353  0.4085  0.2895  0.2422
15671PP      PP25775   4.130   1.621  11.168  0.0480 -0.2688 -0.0214
15672PP      PP25776  13.414  15.891   2.400 -0.0231 -0.3817 -0.0740
15673PP      PP25777   2.732  10.674   3.561 -0.0663 -0.0299  0.1667
15674PP      PP25778   4.113   6.467   3.649 -0.2864  0.2700 -0.2228
15675PP      PP25779   8.066  15.822   1.331  0.1860  0.0042 -0.1878
15676PP      PP25780   0.177   1.011   1.106  0.1537  0.0016  0.2922
15677PP      PP25781   2.184   0.732   0.466 -0.0688  0.0210  0.0120
15678PP      PP25782  11.692   6.205   9.222  0.1249  0.0551 -0.1745
15679PP      PP25783   7.924   8.460   1.616  0.0437 -0.1753  0.1617
15680PP      PP25784  13.767   8.894  12.329 -0.1725  0.1394 -0.2526
15681PP      PP25785  14.629   8.507   4.166 -0.0886  0.1653 -0.0046
15682PP      PP25786   1.678  11.929   1.291  0.1009 -0.1276 -0.2592
15683PP      PP25787   7.477  11.624   2.076  0.2852 -0.0626  0.0493
15684PP      PP25788   7.018  13.761   9.919 -0.0476 -0.0471  0.2453
15685PP      PP25789   2.881   8.106  13.237  0.1123 -0.1252  0.0052
15686PP      PP25790  11.640   8.293  12.756  0.1346  0.0866  0.2247
15687PP      PP25791   7.051  14.405   3.745  0.0405  0.0662 -0.1993
15688PP      PP25792  14.679   9.865  13.391 -0.0045 -0.0718 -0.0425
15689PP      PP25793   2.811   3.850   3.399 -0.0635 -0.2172 -0.1097
15690PP      PP25794  12.235   6.118   0.062 -0.0358 -0.1838  0.0357
15691PP      PP25795  10.672  14.133  10.973  0.1120  0.0396 -0.2491
15692PP      PP25796   4.959   7.420   3.882 -0.5068  0.1513 -0.0881
15693PP      PP25797  11.053   5.978  12.380 -0.1415 -0.3110  0.1685
15694PP      PP25798   8.422   2.714   2.583 -0.2059 -0.2220 -0.1393
15695PP      PP25799   2.253   5.278  13.371  0.1835 -0.0884  0.3690
15696PP      PP25800   0.473  14.469  13.380  0.3810 -0.1050  0.1215
15697PP      PP25801   9.273   9.321   1.930  0.0304 -0.1152  0.0944
15698PP      PP25802  12.513   7.422  10.959 -0.1332  0.0459  0.0826
15699PP      PP25803   4.946   1.586   9.138 -0.2565 -0.1176 -0.2359
15700PP      PP25804  10.657  12.001   7.756  0.0993  0.1995  0.0492
15701PP      PP25805   0.089  15.610  13.258 -0.3875  0.2782  0.0861
15702PP      PP25806   1.623   8.817  11.823 -0.0507 -0.2228 -0.1814
15703PP      PP25807   4.307   4.605   9.100  0.0093  0.2022  0.0694
15704PP      PP25808   7.111   2.418   2.845 -0.1612 -0.2881  0.1554
15705PP      PP25809   8.519  15.405   8.257  0.0975  0.0609 -0.1015
15706PP      PP25810   0.463   1.492  12.003 -0.0510  0.0854 -0.0024
15707PP      PP25811   7.605  10.707   0.743  0.1796  0.1254 -0.0716
15708PP      PP25812   3.416   1.955   3.567  0.1302 -0.0297  0.0268
15709PP      PP25813  15.395   4.023  13.094 -0.1167  0.0102 -0.1506
15710PP      PP25814  13.093  14.377   0.463  0.0723  0.0325  0.2378
15711PP      PP25815   8.270   1.016  13.225  0.2917 -0.3756  0.1150
15712PP      PP25816   0.038   1.546  13.453 -0.2745  0.1834 -0.2445
15713PP      PP25817  15.463   4.262   9.905  0.0302 -0.0534 -0.0528
15714PP      PP25818   6.270   0.105   3.088  0.2352  0.0795  0.2582
15715PP      PP25819  11.780   9.340   0.370 -0.0080 -0.0732 -0.2756
15716PP      PP25820   7.839   1.215   0.039 -0.2539 -0.0700  0.0878
15717PP      PP25821   4.090   7.791  10.653 -0.0891  0.2597 -0.2284
15718PP      PP25822  15.245   8.290   9.774  0.0792 -0.0221 -0.1629
15719PP      PP25823  10.082   3.452  10.910  0.3816  0.0941  0.1581
15720PP      PP25824  12.144   1.065   2.321 -0.0069 -0.1381  0.1151
15721PP      PP25825   7.459   1.131   1.632  0.3335  0.2240  0.0200
15722PP      PP25826   9.868   0.803  13.132  0.2821 -0.3036  0.0159
15723PP      PP25827   5.365   9.050   2.173 -0.3753  0.1531  0.2617
15724PP      PP25828   6.669  12.006  13.452 -0.1291 -0.1916 -0.1248
15725PP      PP25829   8.518   4.628  11.070 -0.1489 -0.2439  0.0653
15726PP      PP25830  15.255   7.264   1.383  0.1560  0.0509  0.0409
15727PP      PP25831  14.610  12.578   0.792 -0.1539 -0.1854 -0.0751
15728PP      PP25832  12.254  11.662  11.219  0.1177 -0.0971 -0.2061
15729PP      PP25833   6.565   6.439   3.391  0.0890  0.1768  0.1478
15730PP      PP25834  14.811  11.581  11.100 -0.1141 -0.0076 -0.2094
15731PP      PP25835  13.813  11.166  12.969 -0.0615  0.3183 -0.3832
15732PP      PP25836   3.965  14.337   0.945  0.0024  0.3307  0.2406
15733PP      PP25837  13.727  14.327   0.347  0.0322 -0.4207 -0.2116
15734PP      PP25838   8.257  14.868   2.745  0.0701 -0.1998 -0.1123
15735PP      PP25839   3.730  14.723   4.539 -0.1160  0.1938  0.3084
15736PP      PP25840   2.563   9.595  13.008 -0.0522  0.0931 -0.0204
15737PP      PP25841   5.835  12.484  13.028  0.0906 -0.0691  0.0206
15738PP      PP25842   0.823   4.253   1.188 -0.1610  0.0096  0.0660
15739PP      PP25843  13.784   0.157   0.331 -0.1670 -0.0288  0.0728
15740PP      PP25844   0.363   4.693   9.756  0.2751 -0.3443 -0.0019
15741PP      PP25845   2.158   4.843   0.128 -0.0552 -0.0612 -0.0132
15742PP      PP25846   1.968   2.168   1.072  0.0463  0.0820  0.0489
15743PP      PP25847   1.297   8.577   1.706  0.2908  0.1493  0.2875
15744PP      PP25848  11.441  15.788  10.949  0.0738  0.0417  0.2110
15745PP      PP25849   8.194   1.901   8.835  0.0608 -0.1556 -0.3001
15746PP      PP25850   7.132   3.133  13.102 -0.0101 -0.2692 -0.1218
15747PP      PP25851   2.709   2.251  13.191  0.4576  0.2024 -0.0463
15748PP      PP25852   1.189   7.109  12.281  0.0232  0.3940 -0.2402
15749PP      PP25853   1.460   7.818   9.940  0.2304  0.0597  0.1477
15750PP      PP25854   2.399   2.203  10.365 -0.2128  0.1344  0.0335
15751PP      PP25855   1.104   5.147   2.232 -0.4027 -0.1252  0.3705
15752PP      PP25856  13.316   4.748   4.637  0.0008  0.1377  0.1098
15753PP      PP25857   6.300  13.946   2.663  0.2013  0.2958  0.0842
15754PP      PP25858  15.785  12.544  10.051  0.0521 -0.0547 -0.2762
15755PP      PP25859   6.063   8.142   1.233  0.1845  0.0297 -0.3073
15756PP      PP25860   4.781   7.942   9.683  0.2456 -0.4752  0.0185
15757PP      PP25861   0.865  10.896   1.938 -0.0567 -0.1487  0.3197
15758PP      PP25862   3.340  14.115   9.859  0.2452 -0.3011  0.1139
15759PP      PP25863   6.438   9.314  11.592 -0.0910  0.2309  0.1140
15760PP      PP25864   4.309   6.008  10.326  0.1008  0.0911 -0.0942
15761PP      PP25865   5.300  11.439   2.033  0.0473  0.0768 -0.3612
15762PP      PP25866   0.780  13.573  13.358 -0.4458 -0.0109  0.0325
15763PP      PP25867  12.711  11.270  13.296 -0.2374  0.1016 -0.1704
15764PP      PP25868   4.245   1.479  11.684  0.1706 -0.3682  0.1651
15765PP      PP25869  10.906   2.222  12.632 -0.0319  0.0917 -0.0320
15766PP      PP25870   7.744  13.184   9.076  0.2792  0.0986 -0.2284
15767PP      PP25871  13.398   2.386  12.307 -0.1899 -0.0720  0.1833
15768PP      PP25872   9.019   8.236  10.775  0.0601  0.3077  0.1020
15769PP      PP25873  15.126  14.513   9.928 -0.1683  0.1028 -0.1836
15770PP      PP25874   7.283  10.627  12.258  0.0651 -0.2962 -0.0494
15771PP      PP25875   5.319   5.775   1.781  0.0235 -0.1301  0.0970
15772PP      PP25876   5.314   9.802   5.008  0.2916 -0.1783  0.0921
15773PP      PP25877   9.008  13.845   9.290  0.0252 -0.2497  0.0702
15774PP      PP25878   5.185   0.586   9.217  0.1848 -0.1317  0.2106
15775PP      PP25879   6.945   9.743   1.475 -0.0272 -0.3460 -0.1811
15776PP      PP25880   1.852   2.540   9.222 -0.0655 -0.2805 -0.0654
15777PP      PP25881   3.839   0.921   9.418 -0.1853  0.2278 -0.1861
15778PP      PP25882   8.753   8.743  10.223  0.2588  0.2335  0.1045
15779PP      PP25883   9.502  11.228   9.291  0.1401 -0.1630  0.1658
15780PP      PP25884  10.305   4.890   4.564 -0.1480  0.1447 -0.1851
15781PP      PP25885   7.299   8.792  10.062  0.1061 -0.1288 -0.1311
15782PP      PP25886  14.580   3.682   2.356  0.3409  0.1084  0.1923
15783PP      PP25887   2.243  13.693  11.120 -0.1590  0.1825 -0.0049
15784PP      PP25888   9.412   9.465   4.500 -0.2801  0.1034  0.1859
15785PP      PP25889  12.191   2.265  12.097  0.2419  0.3768  0.2355
15786PP      PP25890  15.214  15.624   9.156  0.1085 -0.0947 -0.0650
15787PP      PP25891  11.346   7.084   8.959 -0.3888  0.0277  0.3044
15788PP      PP25892   1.541  14.101  10.079 -0.0625 -0.0960  0.2180
15789PP      PP25893   6.296   6.846   1.662  0.1788  0.2099  0.0841
15790PP      PP25894   6.691  12.229   4.913  0.0977  0.0809  0.0597
15791PP      PP25895  12.815  11.408  10.075 -0.0984  0.2213  0.1401
15792PP      PP25896  14.441  15.187   9.508  0.0823 -0.2634 -0.2763
15793PP      PP25897   3.705  10.557   0.055  0.1306 -0.1082  0.2225
15794PP      PP25898  11.216   8.319  13.039 -0.0852 -0.0918 -0.0939
15795PP      PP25899   3.135   4.174   8.751  0.0691 -0.2971  0.2047
15796PP      PP25900   6.869   7.977   0.601  0.0048 -0.1158  0.0475
15797PP      PP25901  15.041  15.883  13.262  0.0517 -0.2066 -0.0520
15798PP      PP25902  11.400  13.312   2.214 -0.1840  0.0266  0.0809
15799PP      PP25903   0.574   8.834   3.519  0.1115  0.0952 -0.0447
15800PP      PP25904  11.020  10.047  10.040 -0.0657  0.2253  0.0941
15801PP      PP25905  13.394   6.459  10.621  0.2266  0.2399  0.2124
15802PP      PP25906   7.577   8.597  10.886  0.0033 -0.1497 -0.1575
15803PP      PP25907  11.553  11.640   9.502  0.0006 -0.1352  0.2753
15804PP      PP25908   5.798  12.216   1.729  0.0647  0.0782  0.1886
15805PP      PP25909   6.724  10.087  10.074 -0.0533 -0.0180 -0.1459
15806PP      PP25910   6.825   0.888   1.337 -0.0675 -0.2292 -0.1290
15807PP      PP25911   2.879   3.981   1.409  0.2914 -0.0069  0.1599
15808PP      PP25912   5.507   2.252   1.101 -0.0076  0.1597  0.0094
15809PP      PP25913  13.672   4.247   3.659 -0.0316  0.2604 -0.1960
15810PP      PP25914   1.648   7.381  10.814 -0.0882 -0.1801  0.0058
15811PP      PP25915  10.653  11.288  12.687  0.1279  0.1596 -0.0972
15812PP      PP25916  15.755   6.450  12.078  0.0672  0.2116 -0.0002
15813PP      PP25917  11.033  14.412  10.232  0.1619  0.3338 -0.0994
15814PP      PP25918  13.041  11.222   1.055  0.1184 -0.1640  0.3165
15815PP      PP25919   3.272   1.952   2.040 -0.0794  0.0369  0.0132
15816PP      PP25920  11.737  13.899   1.550  0.0967 -0.1693 -0.1924
15817PP      PP25921  10.145  10.152  11.249 -0.3152  0.3592  0.0484
15818PP      PP25922   2.526   4.922   4.010 -0.2675  0.1279 -0.0471
15819PP      PP25923  15.152   2.821  11.987 -0.0527 -0.0734 -0.0103
15820PP      PP25924  14.294   2.260   0.856  0.6063 -0.0336 -0.2285
15821PP      PP25925  13.457   0.797  11.652  0.1853 -0.3944 -0.0799
15822PP      PP25926   9.313   1.338  10.457 -0.0068 -0.1674 -0.0327
15823PP      PP25927   0.760   0.917   0.077  0.1725  0.2761  0.1754
15824PP      PP25928   5.465  12.540   0.798 -0.0787  0.2871  0.1332
15825PP      PP25929  11.345   1.295   3.323 -0.1457 -0.3756 -0.0113
15826PP      PP25930   3.729  12.122   3.607 -0.4126 -0.1895 -0.0493
15827PP      PP25931   3.049   5.126   2.164 -0.0417  0.0042 -0.2486
15828PP      PP25932   1.271  15.554  10.647  0.0788  0.0082 -0.0230
15829PP      PP25933  13.323   9.024   3.919  0.2861 -0.2163  0.1844
15830PP      PP25934   9.360   8.791   1.967  0.0563  0.1656 -0.2262
15831PP      PP25935   7.803   2.221  10.252  0.0550  0.1089  0.1916
15832PP      PP25936   9.878   8.008   2.170 -0.0909 -0.1052 -0.0985
15833PP      PP25937  10.699   6.542   1.107  0.2348 -0.1124 -0.1008
15834PP      PP25938   9.373   5.836  13.442 -0.0259 -0.0081 -0.0670
15835PP      PP25939  10.994  15.446  10.139  0.4001 -0.1119  0.0320
15836PP      PP25940   8.728  15.871   9.031  0.0722 -0.1346  0.2937
15837PP      PP25941  12.508   7.729   3.109 -0.0349  0.1963  0.3006
15838PP      PP25942  10.764   1.917  11.380 -0.2687  0.2505  0.4433
15839PP      PP25943   4.355   8.783   1.038  0.1885  0.4974  0.1945
15840PP      PP25944  11.453   0.611   2.690 -0.0506  0.2342 -0.3531
15841PP      PP25945   0.152  11.185   3.470 -0.1949 -0.0295 -0.0779
15842PP      PP25946   8.468   2.110  11.473  0.0205  0.1180 -0.1805
15843PP      PP25947  12.149  13.899   1.231 -0.5005  0.0458  0.0116
15844PP      PP25948   6.318   2.478   2.224  0.1269 -0.1715 -0.3975
15845PP      PP25949   6.335  13.951   0.294  0.0193  0.0649  0.3183
15846PP      PP25950   4.926   0.650  12.952 -0.1372 -0.3740 -0.5139
15847PP      PP25951   3.499   1.962  12.791 -0.0037  0.0363  0.1207
15848PP      PP25952  13.346   2.599   2.559 -0.1876 -0.2065 -0.1074
15849PP      PP25953  15.887  10.612  10.493  0.0513 -0.0059  0.0058
15850PP      PP25954   9.613   9.100   2.917 -0.3390 -0.1254 -0.4210
15851PP      PP25955   6.186  13.446   2.736  0.3457  0.2163 -0.2350
15852PP      PP25956   6.949  15.137   4.665  0.0098 -0.1077  0.3351
15853PP      PP25957   5.680   3.286  11.146  0.0544 -0.0266  0.0101
15854PP      PP25958   5.343   3.718   9.605  0.0674  0.2988  0.2723
15855PP      PP25959   6.576   8.217   4.195 -0.0961 -0.2653 -0.1785
15856PP      PP25960  10.987   4.177   3.138 -0.2898  0.3011 -0.0722
15857PP      PP25961  15.477  11.646  11.973  0.3558  0.2000  0.0621
15858PP      PP25962  11.546  10.892  13.309  0.0230  0.2878 -0.2112
15859PP      PP25963  15.546   7.806   5.521  0.2706 -0.4456 -0.1260
15860PP      PP25964  15.879  15.865  10.468 -0.3686 -0.1186 -0.3060
15861PP      PP25965   4.375   6.600  12.691 -0.0930 -0.1078  0.0610
15862PP      PP25966   1.998   3.751   9.401  0.1787  0.1438 -0.0801
15863PP      PP25967  12.031  13.833   3.530 -0.1364 -0.0063  0.2508
15864PP      PP25968  13.043   5.908   4.009 -0.0426  0.1041  0.1146
15865PP      PP25969   1.545  12.720  10.179  0.0788  0.0346  0.0739
15866PP      PP25970  14.428   9.970   4.114  0.3891 -0.0081 -0.1974
15867PP      PP25971   0.264  12.550   9.211  0.1792 -0.1157 -0.2371
15868PP      PP25972   6.651   6.534  12.071  0.1236 -0.1841  0.2216
15869PP      PP25973  12.753   1.563   9.690  0.4095 -0.2159 -0.0844
15870PP      PP25974   4.697   8.285   1.527 -0.1246  0.0807  0.0592
15871PP      PP25975   5.514  14.446   4.748  0.0715 -0.3484 -0.4820
15872PP      PP25976   2.780  10.002  11.571  0.0563 -0.1153  0.1039
15873PP      PP25977   7.351   0.389   8.575 -0.2454  0.4135  0.4704
15874PP      PP25978   5.030   9.352  10.700 -0.0445 -0.0564  0.2705
15875PP      PP25979   4.347   6.541   1.290  0.0266 -0.1707  0.0751
15876PP      PP25980  11.454   7.470   9.329  0.0981 -0.0348 -0.0369
15877PP      PP25981   2.533   8.934  10.406 -0.0867 -0.0659 -0.0568
15878PP      PP25982   8.787   9.555  11.574 -0.1341 -0.1851 -0.0569
15879PP      PP25983   4.659   0.015  11.277  0.0035  0.1930  0.1457
15880PP      PP25984   8.708  12.997  11.100  0.1756 -0.0832  0.1421
15881PP      PP25985   0.222   8.901   9.718  0.2299  0.3351  0.2327
15882PP      PP25986   3.245   3.696  10.716 -0.1731  0.3043  0.1283
15883PP      PP25987   4.800  14.610  10.778  0.0121 -0.1460 -0.0164
15884PP      PP25988   2.189   4.240  11.671  0.2669  0.0431  0.2237
15885PP      PP25989  14.466   3.662   4.280 -0.2285 -0.2339  0.0942
15886PP      PP25990   4.250   6.647   2.624  0.0323  0.2323 -0.4457
15887PP      PP25991   5.213  15.571  12.795  0.3565  0.1523  0.0028
15888PP      PP25992  12.337   1.680   1.598 -0.0345  0.2238 -0.1597
15889PP      PP25993  15.734   8.347   9.927 -0.1975 -0.0444  0.0345
15890PP      PP25994   0.958   9.711   4.375  0.1593 -0.2395 -0.0256
15891PP      PP25995  13.879  15.176  10.218  0.1963 -0.1156 -0.0690
15892PP      PP25996   6.312   0.851   1.480  0.0067 -0.4516  0.0553
15893PP      PP25997   7.920   9.907  12.408  0.1003 -0.1017 -0.1488
15894PP      PP25998  12.323   1.512   9.914 -0.0465 -0.2001 -0.0742
15895PP      PP25999   7.070  14.818   4.190 -0.1764 -0.1285 -0.0258
15896PP      PP26000  11.599   1.949   9.353  0.2232 -0.1768  0.2365
15897PP      PP26001   7.615   3.583   3.234  0.1357 -0.0514 -0.0683
15898PP      PP26002   4.390  10.140   3.519 -0.1489 -0.1149 -0.2679
15899PP      PP26003  10.171   2.611   2.561  0.0931 -0.0100  0.1868
15900PP      PP26004   8.566   6.770   9.955  0.2201 -0.1147  0.5217
15901PP      PP26005   8.964   0.572   1.977 -0.2544 -0.1167 -0.0357
15902PP      PP26006  14.685   9.689   9.479  0.3527 -0.0811 -0.3203
15903PP      PP26007  13.647   0.566   9.710  0.1892  0.0862 -0.2682
15904PP      PP26008  14.102  11.752  11.679 -0.1332  0.1443 -0.0496
15905PP      PP26009  11.117  14.781   0.754  0.1758 -0.0715  0.2525
15906PP      PP26010   2.352   4.313   0.425  0.1885  0.2475 -0.1669
15907PP      PP26011  13.172   6.559   2.550 -0.1028  0.1854  0.1144
15908PP      PP26012   9.944   2.452   9.270  0.6112  0.2040 -0.3755
15909PP      PP26013   1.540  13.713  12.773  0.3452  0.0305 -0.1109
15910PP      PP26014   8.010   0.229   9.344 -0.1558  0.1811  0.2601
15911PP      PP26015  13.258  12.784   0.761 -0.0755  0.0524 -0.0391
15912PP      PP26016   6.934  14.980   0.102 -0.1688 -0.1166 -0.0562
15913PP      PP26017   6.259   8.734  12.168  0.0964  0.2286  0.0984
15914PP      PP26018  10.776  13.151  12.208  0.0173  0.1433  0.1489
15915PP      PP26019   3.430   4.165   0.221 -0.0669 -0.0749 -0.0523
15916PP      PP26020   6.779   8.694  12.115 -0.1086  0.2171 -0.1085
15917PP      PP26021   7.815   0.751  13.323 -0.3500  0.2248  0.0191
15918PP      PP26022  10.980   8.539   2.845 -0.0042  0.3063 -0.1643
15919PP      PP26023  13.651   8.518  11.930  0.1982 -0.1470  0.1699
15920PP      PP26024   4.650  12.461  11.086  0.1346  0.3673  0.1586
15921PP      PP26025  10.888   1.476   0.122 -0.3720 -0.0790  0.0797
15922PP      PP26026   6.775   0.558  10.913 -0.1548  0.1250  0.0006
15923PP      PP26027  14.575   6.699  13.138  0.0856 -0.0879  0.1009
15924PP      PP26028   9.584   3.112   3.192  0.1000 -0.1368 -0.0785
15925PP      PP26029   9.899  10.300   1.822  0.2584  0.1305  0.2366
15926PP      PP26030   3.961  15.119   3.143 -0.2121  0.1408 -0.2745
15927PP      PP26031  12.917  15.736   1.688 -0.2602 -0.0927  0.0949
15928PP      PP26032   1.000  12.928   0.444 -0.0888 -0.1807  0.2381
15929PP      PP26033  14.194   3.691  11.781  0.1120  0.2386 -0.1044
15930PP      PP26034  11.398   6.883   4.316  0.1230 -0.3723 -0.0048
15931PP      PP26035   1.150   5.764  10.228  0.0561  0.4045 -0.0238
15932PP      PP26036   0.252   1.860   2.184  0.1015  0.0455 -0.1489
15933PP      PP26037   5.235   8.413  10.196 -0.2109  0.0441  0.0685
15934PP      PP26038  14.045   4.860   3.543 -0.3811  0.3538 -0.1100
15935PP      PP26039  13.174  10.161  10.083  0.0383  0.1087 -0.1373
15936PP      PP26040  13.172   0.721  10.520 -0.1983 -0.0472 -0.0354
15937PP      PP26041   0.358   7.596  11.683  0.0771 -0.1300 -0.2824
15938PP      PP26042  13.973  15.594  12.326  0.0740 -0.0919 -0.0199
15939PP      PP26043   7.400  15.837   9.187 -0.2977 -0.0699 -0.0307
15940PP      PP26044   3.199   9.568  12.323  0.0690  0.0352 -0.1164
15941PP      PP26045   4.817  12.935   1.555  0.2279 -0.0062 -0.0373
15942PP      PP26046   6.720  13.362   9.423  0.3663  0.1428  0.0121
15943PP      PP26047   9.804  11.560   4.158  0.0236 -0.0058  0.0422
15944PP      PP26048   2.415  10.330  10.376 -0.1483 -0.0816 -0.0297
15945PP      PP26049   9.069  14.683   0.620  0.0040 -0.1981 -0.0600
15946PP      PP26050   1.611  13.654  12.265  0.0829  0.3772  0.2459
15947PP      PP26051   2.305   8.970  12.181 -0.2803 -0.0365 -0.1064
15948PP      PP26052   7.811   9.298  10.788 -0.3083  0.0163 -0.1495
15949PP      PP26053  13.507  11.882  11.936 -0.2019  0.1886 -0.0226
15950PP      PP26054  12.903   9.587   9.832  0.2030  0.0603  0.1651
15951PP      PP26055  12.281  15.048   9.683  0.3596 -0.1421  0.0686
15952PP      PP26056   2.990  14.208  10.185 -0.4624 -0.1663 -0.0874
15953PP      PP26057   5.976  12.928   3.389 -0.6579 -0.1638 -0.1944
15954PP      PP26058   9.587   0.390   8.938 -0.1244 -0.1554 -0.0579
15955PP      PP26059   7.063   0.366  11.670  0.2238 -0.0013 -0.2444
15956PP      PP26060   0.716  13.514  12.486 -0.1994 -0.1457 -0.1853
15957PP      PP26061  15.701  14.857   0.189  0.0548  0.1748  0.0568
15958PP      PP26062   2.702   6.427  11.743  0.0688  0.4962  0.0062
15959PP      PP26063   0.267   3.846   9.695  0.1898  0.0152  0.1671
15960PP      PP26064   8.104  11.686   0.348  0.3933 -0.1222  0.0936
15961PP      PP26065  11.431   1.096   2.819 -0.1974  0.5064 -0.3812
15962PP      PP26066   0.483  10.480  10.837  0.2205 -0.0999 -0.1197
15963PP      PP26067   6.144   2.038   3.592 -0.1744  0.0642 -0.1995
15964PP      PP26068   1.995   7.060   1.364 -0.1355  0.0404 -0.3056
15965PP      PP26069  10.308   9.235   9.411 -0.1214  0.2193  0.0837
15966PP      PP26070   1.918   6.756   0.165 -0.1709  0.1609 -0.2103
15967PP      PP26071   0.558   8.025   2.982 -0.1434 -0.1004  0.1693
15968PP      PP26072   3.765   9.488   2.466  0.0728  0.0988  0.0776
15969PP      PP26073   9.519  14.928  12.183 -0.2402  0.2761  0.2158
15970PP      PP26074   2.015   8.448   1.043  0.0027  0.1639 -0.0403
15971PP      PP26075  11.090  10.446   1.411 -0.0025  0.3006  0.0960
15972PP      PP26076   8.902  12.630   8.481 -0.3740 -0.0209  0.0867
15973PP      PP26077   9.801   2.635  10.293  0.2200 -0.1977  0.5138
15974PP      PP26078   0.257  10.123  10.431  0.2068  0.1466  0.0224
15975PP      PP26079   9.357   6.588  12.782 -0.3726 -0.2864 -0.0603
15976PP      PP26080   9.602   9.598   9.805 -0.1802 -0.1444  0.2217
15977PP      PP26081  10.547  12.451  10.213 -0.1005 -0.1031 -0.1965
15978PP      PP26082   2.440   1.960   3.025  0.1381  0.0834  0.1941
15979PP      PP26083   8.055   8.641   0.161 -0.1891 -0.4079 -0.1425
15980PP      PP26084   6.360   6.726   0.351  0.3562 -0.1662  0.0819
15981PP      PP26085   2.152  10.171   0.683 -0.1481 -0.0267  0.1931
15982PP      PP26086  14.440   9.398   3.710  0.0775  0.3324  0.2323
15983PP      PP26087   9.415   3.264   9.110  0.1039 -0.1623 -0.0388
15984PP      PP26088   2.235   1.296  10.819 -0.1767  0.2126  0.1535
15985PP      PP26089   9.435  11.415  13.033  0.2731  0.0278  0.0393
15986PP      PP26090   7.867   5.021  11.721 -0.0904  0.1726  0.0956
15987PP      PP26091  11.352  13.509   8.998  0.1444 -0.1392 -0.3525
15988PP      PP26092   0.071  11.852  10.848 -0.1017 -0.1595 -0.1172
15989PP      PP26093   6.431  12.686   3.475  0.0218 -0.1026  0.0529
15990PP      PP26094  12.370   3.621   2.999  0.2226 -0.1640 -0.1467
15991PP      PP26095   0.350   4.040  11.079  0.2281 -0.1456  0.1476
15992PP      PP26096  10.518   0.405  13.317  0.0487 -0.2022 -0.0392
15993PP      PP26097   0.641   8.466  10.704 -0.0889  0.3334 -0.1931
15994PP      PP26098   9.812   5.163   0.462  0.1232 -0.0191 -0.0786
15995PP      PP26099  14.546   4.056  11.730  0.1257  0.2091 -0.2975
15996PP      PP26100   1.341   6.188   4.056  0.0865  0.1411  0.0969
15997PP      PP26101   0.913   3.919   1.822 -0.2293 -0.1639 -0.2054
15998PP      PP26102   6.678  13.547   0.087 -0.1327 -0.0127  0.2997
15999PP      PP26103   1.336   4.491   0.599  0.1255 -0.2237 -0.0865
16000PP      PP26104   7.051   5.040   9.757  0.0151  0.1094  0.1422
16001PP      PP26105  12.444   2.691   4.747 -0.0967  0.0601  0.1482
16002PP      PP26106  13.200   2.944   4.856 -0.1153 -0.0451 -0.1676
16003PP      PP26107   7.170   5.143  10.473  0.0193 -0.1456  0.3641
16004PP      PP26108  11.421   6.095   2.547  0.1432 -0.1304 -0.1590
16005PP      PP26109  15.846   7.308  10.789 -0.3366  0.0763  0.4072
16006PP      PP26110   5.532  15.774  10.001 -0.3221 -0.0966 -0.1049
16007PP      PP26111   5.934  13.884   3.926  0.3783 -0.2934 -0.0955
16008PP      PP26112  13.052   2.693  11.986 -0.1340 -0.0457  0.2557
16009PP      PP26113   4.211   2.422  12.700 -0.1032 -0.0092 -0.1470
16010PP      PP26114  15.561  10.138  11.852 -0.2901 -0.1133 -0.2694
16011PP      PP26115   9.133   8.700   0.658  0.1584 -0.0497 -0.0395
16012PP      PP26116  14.830  10.954   1.847  0.1217  0.1517 -0.0019
16013PP      PP26117  12.661   9.728   8.180  0.0808 -0.0236 -0.0257
16014PP      PP26118   9.503  10.725   2.692  0.2530 -0.0165 -0.0618
16015PP      PP26119   8.549  14.835  12.037  0.2176  0.1144  0.4395
16016PP      PP26120   5.310  15.814   4.444 -0.1451 -0.1920  0.0678
16017PP      PP26121  11.692   7.696   0.641  0.2291  0.0171  0.2029
16018PP      PP26122   3.293  12.344  11.249  0.3345 -0.4069 -0.3137
16019PP      PP26123   8.201  13.153   2.445 -0.0702  0.3079 -0.0403
16020PP      PP26124   3.836   8.235   1.977 -0.0717  0.1324 -0.1033
16021PP      PP26125  13.781  15.741   0.725 -0.3380 -0.2491 -0.0505
16022PP      PP26126   5.608   4.042   1.029 -0.1627  0.3982  0.3549
16023PP      PP26127   7.091  11.006   0.528 -0.0368 -0.0149  0.0856
16024PP      PP26128   5.946   7.357  13.254 -0.1609 -0.0465  0.1449
16025PP      PP26129   2.355   2.224  11.879  0.0598 -0.2193 -0.1572
16026PP      PP26130   4.592  13.659  12.192 -0.3155 -0.0475 -0.0418
16027PP      PP26131   6.857  15.200  10.801 -0.1837  0.1530  0.0909
16028PP      PP26132  11.319   4.804   9.627 -0.4626  0.0073 -0.0792
16029PP      PP26133  13.463   5.449   0.001 -0.2418  0.2305  0.0539
16030PP      PP26134   9.350   6.855  11.720 -0.0289  0.2394 -0.2364
16031PP      PP26135   3.064   4.013   9.897  0.0406  0.1749  0.9479
16032PP      PP26136   4.463   0.414  11.049  0.3727  0.1266 -0.3023
16033PP      PP26137   8.837   3.585   8.861  0.0023  0.2334 -0.0314
16034PP      PP26138   4.141  11.922   0.951  0.0819 -0.4287 -0.4199
16035PP      PP26139   7.112   6.071  10.639 -0.1057  0.0353 -0.1166
16036PP      PP26140  13.978   0.973   3.669 -0.1017  0.1760  0.0505
16037PP      PP26141   3.994   4.528   0.863  0.1723 -0.0762  0.3284
16038PP      PP26142  10.725   5.140  12.983 -0.1981  0.1490 -0.0677
16039PP      PP26143  11.375   0.146  12.846 -0.1862  0.1236 -0.2268
16040PP      PP26144   4.569  12.876   9.725  0.0937  0.4218  0.0507
16041PP      PP26145   4.083  11.675   1.853  0.2760  0.0737  0.3950
16042PP      PP26146  12.167   2.761   2.450 -0.0506 -0.0595  0.2878
16043PP      PP26147   7.614   1.538   1.922  0.3159 -0.3370 -0.1847
16044PP      PP26148   6.896   4.075   1.175 -0.1946 -0.0749 -0.0243
16045PP      PP26149   9.514   9.424   5.228  0.1143 -0.2400 -0.1540
16046PP      PP26150   5.915   0.384   2.146 -0.2867  0.0060 -0.3737
16047PP      PP26151   7.915  14.462   2.981  0.1764  0.1952  0.1413
16048PP      PP26152   2.756   0.754   0.332  0.2272 -0.2020  0.1531
16049PP      PP26153   1.117  15.179   0.161 -0.0170 -0.0865  0.3181
16050PP      PP26154  11.654  12.525   2.932 -0.1010 -0.0317 -0.2084
16051PP      PP26155   4.076  10.738   2.767 -0.1358  0.1274 -0.0746
16052PP      PP26156  13.748   0.764  10.282  0.4977 -0.1605  0.0840
16053PP      PP26157  12.031   5.787  12.481  0.1747  0.3341  0.0892
16054PP      PP26158  12.068   6.474  11.931  0.1988 -0.2759  0.0774
16055PP      PP26159   6.484   4.628  13.372  0.1597  0.0278 -0.0448
16056PP      PP26160   8.732  10.059   0.791 -0.0494  0.2623 -0.2384
16057PP      PP26161   5.070   8.561   1.293 -0.1110 -0.2041 -0.5798
16058PP      PP26162   9.471  12.412   4.037 -0.3122  0.1545 -0.0901
16059PP      PP26163   8.204   5.646   0.634  0.2353 -0.0944  0.1033
16060PP      PP26164   1.061   0.175   1.902  0.0566  0.2519  0.0427
16061PP      PP26165   8.012   0.930   9.759  0.3535  0.0532 -0.1431
16062PP      PP26166  13.311   8.585  12.957 -0.1522  0.3020 -0.0364
16063PP      PP26167  13.640   6.917  12.944 -0.0874 -0.0586  0.0138
16064PP      PP26168   5.471   7.964   0.135 -0.3495  0.1074 -0.0265
16065PP      PP26169   2.096  13.092   1.150 -0.2941  0.3524 -0.1157
16066PP      PP26170  10.997  11.842  10.437 -0.0713 -0.2364  0.0669
16067PP      PP26171  10.753  12.649   2.121 -0.0847  0.0095  0.0384
16068PP      PP26172  15.202   2.138   4.503 -0.2937 -0.2137 -0.2690
16069PP      PP26173   7.229  11.559  10.627  0.2166  0.0667  0.2833
16070PP      PP26174   5.552  11.547  10.513 -0.0109 -0.0693  0.0093
16071PP      PP26175   4.911  10.088   9.196 -0.1932 -0.0002 -0.0525
16072PP      PP26176   3.348   5.492  11.566 -0.0214 -0.0532 -0.2929
16073PP      PP26177   9.156   1.476   2.380 -0.0138 -0.0657 -0.0000
16074PP      PP26178   2.512   8.237   1.165 -0.3082 -0.0069 -0.1513
16075PP      PP26179   5.439  15.190   2.246  0.1047  0.2412 -0.1190
16076PP      PP26180   6.957   5.879  11.069 -0.0612 -0.1873  0.2636
16077PP      PP26181  15.135  15.868   9.603  0.4463 -0.2453 -0.4773
16078PP      PP26182   8.999   4.302   2.731  0.2418  0.2489  0.1522
16079PP      PP26183   1.128  13.862  12.260 -0.0963  0.2851 -0.2307
16080PP      PP26184   6.725   5.923  11.478  0.2713 -0.0086 -0.1798
16081PP      PP26185   7.078  12.284  12.089 -0.1087 -0.2489 -0.4260
16082PP      PP26186   2.113   0.257   0.665  0.1984 -0.1908 -0.0366
16083PP      PP26187  13.867  14.075   9.651 -0.0077  0.1585  0.1187
16084PP      PP26188  12.838   3.874  10.935  0.1920  0.2816 -0.1425
16085PP      PP26189   2.827   9.869  12.563 -0.2393 -0.3229 -0.0958
16086PP      PP26190  15.021   0.963   0.255 -0.1356 -0.3104 -0.1145
16087PP      PP26191   2.943  14.467   3.181 -0.5010 -0.2179  0.0364
16088PP      PP26192  10.962   1.979  10.498 -0.0645  0.0578 -0.1547
16089PP      PP26193   3.563  12.033   4.179  0.2137  0.1813  0.4300
16090PP      PP26194   5.407   7.394   2.150  0.1845  0.0641 -0.0064
16091PP      PP26195   4.613  15.431   8.918  0.1007  0.2943 -0.0464
16092PP      PP26196   5.880   7.550   9.596  0.1306  0.0757 -0.0718
16093PP      PP26197  13.957   6.006   0.566 -0.3777  0.1125  0.2530
16094PP      PP26198   9.626  15.499   1.122 -0.2275 -0.1350  0.2458
16095PP      PP26199  12.989   8.647  13.281 -0.3609  0.2376 -0.1122
16096PP      PP26200  14.614  12.670  12.231  0.1147 -0.1734 -0.2208
16097PP      PP26201  13.713  12.332   1.522  0.1260  0.0965  0.0501
16098PP      PP26202   3.324   8.716   3.266  0.2733 -0.0091  0.2294
16099PP      PP26203  14.929  14.568  12.920  0.0936  0.1127 -0.0525
16100PP      PP26204  14.340   1.030  11.396  0.0062 -0.1563 -0.2176
16101PP      PP26205   1.476  15.514   1.716  0.2153 -0.0138 -0.2917
16102PP      PP26206   3.435   2.552   3.863 -0.1420  0.0813  0.2832
16103PP      PP26207   7.025   7.525  12.014 -0.0661 -0.1523 -0.3043
16104PP      PP26208   6.263  10.812  12.712 -0.1067 -0.1374 -0.0626
16105PP      PP26209   8.818  10.061  11.031 -0.1368  0.1079 -0.0151
16106PP      PP26210   0.062   2.213   2.491 -0.0612 -0.1025 -0.0001
16107PP      PP26211   1.461   0.614   9.749  0.2196 -0.0417 -0.0066
16108PP      PP26212   3.316   5.824   3.493  0.2225  0.2247  0.1766
16109PP      PP26213   1.239  15.592   0.405  0.2972  0.0182  0.0070
16110PP      PP26214   1.671  12.513  11.588  0.1884 -0.0555 -0.0081
16111PP      PP26215  12.241   4.093   3.237 -0.0638 -0.1380 -0.0601
16112PP      PP26216   7.401  11.836  11.100 -0.1466  0.3002 -0.0039
16113PP      PP26217   7.567   8.541  11.443 -0.2436 -0.0158 -0.0462
16114PP      PP26218  10.769   7.917   9.873 -0.4712 -0.0406  0.0268
16115PP      PP26219   8.682   4.754   1.377 -0.1077 -0.2650  0.0188
16116PP      PP26220  13.097   1.903   0.144  0.1630 -0.1791  0.0488
16117PP      PP26221   1.744  13.382   0.177  0.0691 -0.2617  0.0462
16118PP      PP26222   9.395   4.848  13.063  0.3345 -0.1912  0.3915
16119PP      PP26223   2.489   1.321   4.149 -0.0471 -0.0884 -0.2928
16120PP      PP26224   2.397  12.049  12.304  0.1549 -0.1730 -0.1083
16121PP      PP26225   9.682   8.453   9.866 -0.2894  0.0805  0.2731
16122PP      PP26226   6.244   5.485   9.280 -0.2393  0.2637 -0.0503
16123PP      PP26227  15.123  11.820  12.548  0.1693  0.0554  0.1912
16124PP      PP26228   1.603   1.525  12.768 -0.3658  0.1432 -0.3642
16125PP      PP26229   3.536   5.390   1.241 -0.1875 -0.0340 -0.0712
16126PP      PP26230   1.405   8.227   0.212  0.0569 -0.0226  0.1464
16127PP      PP26231  12.831   7.232  13.379  0.0863 -0.1604 -0.0251
16128PP      PP26232  13.394   0.563   1.111  0.0462 -0.1690  0.0727
16129PP      PP26233  11.294   9.120   0.468  0.0058 -0.0875 -0.1253
16130PP      PP26234   1.354  10.654   0.450  0.1597 -0.3739 -0.1399
16131PP      PP26235   5.336   0.548  10.404  0.0090 -0.0735 -0.0343
16132PP      PP26236   7.461   9.539   9.708  0.1162  0.0629 -0.1224
16133PP      PP26237   0.167  12.384  11.062 -0.0005 -0.0433  0.2732
16134PP      PP26238  10.754   6.611   2.640 -0.0641 -0.0581 -0.1265
16135PP      PP26239   0.550   0.089  13.207  0.1185 -0.1872 -0.0764
16136PP      PP26240  13.761   9.766   2.544  0.0481 -0.2541 -0.1876
16137PP      PP26241   1.276  11.085   4.594  0.2311 -0.0133 -0.1527
16138PP      PP26242   1.367   0.166   0.732  0.0549  0.1102 -0.0407
16139PP      PP26243  14.608  11.527   2.849 -0.0476 -0.1712 -0.2389
16140PP      PP26244   8.105   2.917   8.957 -0.4205  0.0508 -0.0879
16141PP      PP26245   8.493  15.855  11.328 -0.2279 -0.1084  0.3548
16142PP      PP26246   2.702  11.192   5.092  0.2540 -0.1166  0.3625
16143PP      PP26247   1.074  14.809   2.791 -0.0004 -0.3292  0.1727
16144PP      PP26248   9.632   0.532  10.563  0.0115 -0.0595 -0.3694
16145PP      PP26249   4.576  11.890  11.267  0.3934 -0.1587 -0.0442
16146PP      PP26250   1.224   9.287   9.686 -0.2025  0.0713  0.0367
16147PP      PP26251  14.322   8.016   3.762 -0.0019 -0.2013 -0.0599
16148PP      PP26252  14.624   2.335   3.720 -0.0456 -0.0569 -0.3859
16149PP      PP26253   8.467   3.394   2.507  0.0530 -0.0783 -0.1543
16150PP      PP26254  13.414   2.340  10.610  0.0078  0.0260  0.2221
16151PP      PP26255   4.192   0.296   0.678 -0.2233  0.0805  0.2284
16152PP      PP26256   7.757   6.829  13.256  0.0657  0.1007  0.0606
16153PP      PP26257  15.374   8.743   1.385 -0.1518 -0.2242 -0.2368
16154PP      PP26258   4.856   0.472   4.230  0.3033  0.0423  0.1915
16155PP      PP26259   2.890   8.123   0.841  0.1878  0.2353  0.0288
16156PP      PP26260   2.420  12.649  12.427 -0.3087 -0.2372 -0.1935
16157PP      PP26261  11.381   2.882  11.096  0.0929 -0.3821 -0.1471
16158PP      PP26262   7.331   7.576   4.171 -0.6053 -0.1573 -0.2859
16159PP      PP26263   5.429   8.296  13.193  0.1467 -0.1160 -0.2827
16160PP      PP26264   4.962   1.622  12.040  0.1490  0.2825  0.0499
16161PP      PP26265   8.595  11.083   1.904  0.1331  0.0573  0.1958
16162PP      PP26266  14.706   9.373   2.497  0.2271 -0.1361 -0.3862
16163PP      PP26267  11.221  15.311  13.397  0.0156 -0.2231  0.3690
16164PP      PP26268  14.574   3.664   0.321 -0.0382 -0.1886  0.0040
16165PP      PP26269   7.388  10.534   9.482 -0.1083 -0.1866 -0.4533
16166PP      PP26270  15.605  14.135   3.994  0.0061 -0.1525 -0.0216
16167PP      PP26271   2.137  14.752   0.787 -0.2121 -0.0629  0.0431
16168PP      PP26272   1.431   1.582   0.420 -0.0475  0.1199 -0.0172
16169PP      PP26273  12.754   5.718   2.893  0.2968 -0.1300 -0.1576
16170PP      PP26274   7.174   0.944  10.759  0.0662  0.0402  0.1604
16171PP      PP26275  11.423  14.363  11.209 -0.0391 -0.2463  0.0451
16172PP      PP26276   1.766  12.388   4.009  0.0426  0.1046 -0.3547
16173PP      PP26277  10.511   3.760   0.696 -0.2355  0.3411  0.3980
16174PP      PP26278   4.497  12.788   9.208 -0.0001  0.0918  0.0415
16175PP      PP26279   9.843  13.461   8.773  0.1428 -0.1590  0.2039
16176PP      PP26280   3.696   2.463   1.349  0.0560 -0.0535 -0.1113
16177PP      PP26281   2.107  11.703  11.460 -0.0537  0.0300  0.0688
16178PP      PP26282   1.672  11.058  10.029  0.4431 -0.2223 -0.0271
16179PP      PP26283  10.606   8.941  10.984 -0.0043 -0.2259 -0.0245
16180PP      PP26284   7.549   2.108  11.133  0.1297  0.0216 -0.0741
16181PP      PP26285  13.112   9.285   0.895  0.0951 -0.0386 -0.4205
16182PP      PP26286  10.189   9.018   3.819  0.0360  0.2265 -0.1437
16183PP      PP26287   4.119   4.228  12.833  0.1515 -0.0907  0.2269
16184PP      PP26288  14.537   8.348  12.220  0.5221 -0.1749  0.0862
16185PP      PP26289   9.604  13.608  10.346 -0.1908  0.0718  0.3214
16186PP      PP26290   5.003   9.689   1.558  0.0187 -0.0056 -0.1797
16187PP      PP26291   6.039   0.051   9.054  0.1528  0.1026 -0.0852
16188PP      PP26292   0.957   0.812  10.329  0.4025  0.0584 -0.0358
16189PP      PP26293  10.647   7.415  11.847 -0.2225  0.4448 -0.3314
16190PP      PP26294   8.946   3.749  13.221  0.3548  0.1638  0.3081
16191PP      PP26295   1.290   8.389   2.256  0.0662 -0.0766  0.3093
16192PP      PP26296   9.625   3.837   1.003 -0.0741  0.0808 -0.1709
16193PP      PP26297  12.472   0.840   1.532  0.0490  0.0625  0.1449
16194PP      PP26298  13.744  12.398  10.924 -0.0808 -0.3086 -0.0486
16195PP      PP26299  13.305   0.364   1.531  0.2200  0.4357 -0.0212
16196PP      PP26300  10.327  11.285   8.952 -0.0143  0.0996  0.1245
16197PP      PP26301  14.238   3.685   9.942 -0.0540 -0.0881  0.0114
16198PP      PP26302   0.182   2.233   1.856  0.2013  0.0184  0.1703
16199PP      PP26303  13.980  13.350  11.880 -0.2128  0.3307  0.1539
16200PP      PP26304  12.805   3.629  11.937  0.0362  0.2428  0.2999
16201PP      PP26305  10.292   9.643   2.500  0.1603 -0.0086 -0.0400
16202PP      PP26306  10.347   2.238   5.002  0.0585 -0.1919 -0.1289
16203PP      PP26307  13.966  13.522   3.686  0.0466  0.1342 -0.1453
16204PP      PP26308  11.695   3.380   3.982 -0.1344  0.1146  0.0614
16205PP      PP26309   9.508   1.639   2.756  0.2803 -0.0930  0.3083
16206PP      PP26310  11.858   5.230  12.466  0.1544  0.4100 -0.2154
16207PP      PP26311  13.621   0.647   8.855  0.2114  0.0067  0.0057
16208PP      PP26312   8.204   0.509  13.136 -0.1761  0.4217 -0.1782
16209PP      PP26313   7.660  14.268   3.871  0.1613 -0.1069  0.1331
16210PP      PP26314  15.331   8.496   4.880 -0.1000  0.1761  0.0939
16211PP      PP26315  11.709  15.597   0.622  0.1137  0.3645  0.0112
16212PP      PP26316   4.542  13.477   0.923  0.2427  0.1996  0.1359
16213PP      PP26317   5.265   8.829  13.286  0.2841  0.1440 -0.1618
16214PP      PP26318  11.605   0.908   9.835  0.0089  0.1489  0.3533
16215PP      PP26319   0.680  13.035   4.230 -0.1247  0.0723  0.2547
16216PP      PP26320   8.286   6.039   1.066  0.2075 -0.0448  0.1607
16217PP      PP26321   8.699   6.215  10.910 -0.1350 -0.2279 -0.1819
16218PP      PP26322   4.075  12.296   0.438  0.0012  0.1238  0.2872
16219PP      PP26323   2.188   5.647   9.742 -0.0547 -0.0038 -0.0688
16220PP      PP26324  13.856   5.352   0.539  0.1415  0.0481  0.2390
16221PP      PP26325  14.245  13.686   4.083 -0.2322  0.0335  0.2871
16222PP      PP26326   3.359   7.933  11.886  0.1677  0.1440 -0.1463
16223PP      PP26327   4.625   9.416  12.727 -0.5332 -0.0805  0.6289
16224PP      PP26328   7.013  11.447  10.146 -0.2004  0.2261 -0.0292
16225PP      PP26329  13.421  13.247   8.760 -0.1856  0.1178 -0.4668
16226PP      PP26330  12.112  12.481   8.294  0.0928 -0.1161  0.3073
16227PP      PP26331   7.229   0.661   2.189  0.2725 -0.0502 -0.0578
16228PP      PP26332  15.531   5.193   2.866  0.0553 -0.2299  0.0462
16229PP      PP26333  15.355   0.658   1.942 -0.2355 -0.3179  0.0350
16230PP      PP26334   9.155   8.445  13.008  0.0241  0.1784  0.0434
16231PP      PP26335   7.612  12.453   2.133  0.3537 -0.0214  0.1214
16232PP      PP26336   2.668  14.092   0.698  0.3102 -0.2535  0.0628
16233PP      PP26337   3.282   1.957   1.494  0.1025  0.2865 -0.0535
16234PP      PP26338   9.400   7.639   0.969  0.0529  0.4406 -0.2281
16235PP      PP26339   0.261  12.646  13.379 -0.0406 -0.3364  0.2122
16236PP      PP26340  10.209  10.140   8.511  0.0977  0.0657  0.0626
16237PP      PP26341   2.940   9.173   3.878 -0.0520 -0.1695  0.0299
16238PP      PP26342   2.468   4.155   3.004  0.0364  0.0818 -0.2193
16239PP      PP26343   9.031   0.397   9.805 -0.1473 -0.4666 -0.1651
16240PP      PP26344  11.827   3.840   0.308 -0.3501  0.3192 -0.0236
16241PP      PP26345   5.902   9.911   9.729 -0.0199  0.1388 -0.1323
16242PP      PP26346   2.906  14.288   4.048  0.1009 -0.1802 -0.1628
16243PP      PP26347   8.642   8.542  10.725 -0.2170  0.1630  0.0366
16244PP      PP26348   2.819   8.090   0.274 -0.2206  0.1197  0.1583
16245PP      PP26349  13.520   6.248  11.570  0.0596  0.1493  0.0550
16246PP      PP26350  12.559   7.271   0.807 -0.0284 -0.1321 -0.0483
16247PP      PP26351  14.333  13.032   1.685 -0.0553  0.0067  0.0404
16248PP      PP26352  12.949   5.057  13.408  0.3278  0.5018 -0.3078
16249PP      PP26353  12.085   6.685   1.624 -0.0940 -0.0564 -0.1129
16250PP      PP26354   6.655   5.497  11.131 -0.1249 -0.0100  0.0051
16251PP      PP26355   1.178  15.207  11.872 -0.0194 -0.0634  0.1271
16252PP      PP26356   6.322   3.261   0.411  0.1836  0.0885 -0.0690
16253PP      PP26357   4.648   3.940  11.552  0.2140 -0.0938  0.1524
16254PP      PP26358  10.316  12.446   9.145  0.1690 -0.0431  0.0525
16255PP      PP26359   7.195   0.040   9.678 -0.2450  0.3909 -0.2594
16256PP      PP26360  13.721   1.449  12.384 -0.4686  0.0325 -0.2094
16257PP      PP26361   7.429   7.518   3.643  0.1726 -0.2789 -0.1178
16258PP      PP26362   4.120  14.131   2.953 -0.0353 -0.1821  0.0342
16259PP      PP26363  11.508   5.356  13.436 -0.1507  0.0119  0.1143
16260PP      PP26364   6.256   1.217   1.833  0.0717 -0.2049 -0.2461
16261PP      PP26365   9.335   8.803   3.298  0.3353  0.0516 -0.0702
16262PP      PP26366   2.633  13.073   2.642 -0.1247 -0.2109  0.1055
16263PP      PP26367   4.760   9.326   5.313  0.2178 -0.2298 -0.1568
16264PP      PP26368   7.391  11.698   4.822  0.2625 -0.3026  0.0613
16265PP      PP26369  14.111   6.926  12.702 -0.0410  0.1731 -0.0903
16266PP      PP26370  14.147  15.787   1.040 -0.2559 -0.1435 -0.1427
16267PP      PP26371  13.050  10.998  12.033  0.0022  0.3077  0.2296
16268PP      PP26372  11.627  12.531   3.419 -0.1633 -0.2470  0.0281
16269PP      PP26373  13.761   9.670   1.542 -0.0499  0.2652  0.2572
16270PP      PP26374  14.560   7.333   4.996  0.0580  0.1002 -0.1963
16271PP      PP26375  11.849   3.503   1.468 -0.1689 -0.0749  0.3957
16272PP      PP26376   8.059  10.674   0.402  0.3484  0.1558  0.4107
16273PP      PP26377  10.989   6.242   4.542  0.0829 -0.2255 -0.2155
16274PP      PP26378   3.365   3.818  11.341  0.1916 -0.2088  0.2148
16275PP      PP26379   2.194   8.754  10.752 -0.0825 -0.2379 -0.2446
16276PP      PP26380  15.170   3.174   1.741  0.0577 -0.0815  0.2844
16277PP      PP26381  13.738  14.956   8.486  0.2833 -0.0653  0.1498
16278PP      PP26382  13.556   4.286   2.362 -0.0201  0.0474  0.1109
16279PP      PP26383   4.021  13.817  11.355  0.2365 -0.0314 -0.0255
16280PP      PP26384  12.051  12.347   0.834  0.1999  0.1731  0.0373
16281PP      PP26385   8.911  11.404  12.844  0.0693  0.0526  0.1132
16282PP      PP26386  10.198  15.466   3.601  0.0770  0.0603  0.1020
16283PP      PP26387  12.342   8.096   2.259 -0.0946 -0.2146 -0.1593
16284PP      PP26388  14.880   8.133  11.302  0.0828  0.0603  0.2134
16285PP      PP26389  12.871   2.948   0.574  0.3037  0.0231  0.0549
16286PP      PP26390  14.775  15.824   9.232  0.0557  0.0577 -0.2121
16287PP      PP26391  15.450   8.276   4.251  0.1322 -0.2044 -0.1455
16288PP      PP26392   2.792  15.356  12.078  0.1380  0.0335 -0.1863
16289PP      PP26393   6.800   5.942   4.489 -0.3398 -0.1194  0.0484
16290PP      PP26394  12.842   8.199  13.125  0.3892  0.3750  0.1809
16291PP      PP26395   4.100   6.204  12.445  0.0963  0.2364  0.2196
16292PP      PP26396   1.000   4.881  12.208  0.1609 -0.0167 -0.1792
16293PP      PP26397   7.938   8.039  10.683  0.3770 -0.1205  0.0563
16294PP      PP26398  15.373   2.173   9.356 -0.2296 -0.2451  0.0166
16295PP      PP26399   5.297  11.663   3.767 -0.1143  0.4019  0.4498
16296PP      PP26400  12.772   1.280   2.323 -0.0332  0.1704 -0.0784
16297PP      PP26401   5.339   0.231   9.627 -0.0314  0.1652  0.1174
16298PP      PP26402   8.465  11.674   3.154 -0.0042  0.3015 -0.2423
16299PP      PP26403  10.842   3.872  11.260  0.1603 -0.0427  0.1031
16300PP      PP26404  13.345   3.997  12.520  0.0587 -0.1662 -0.1330
16301PP      PP26405  15.890   3.742   0.278  0.0466  0.1369 -0.1693
16302PP      PP26406   7.394  12.858   3.363  0.0481  0.1301 -0.3708
16303PP      PP26407   4.732   1.726  10.894  0.1020 -0.1222 -0.2656
16304PP      PP26408   0.181   5.620   9.839 -0.1262 -0.1057  0.1419
16305PP      PP26409   6.643  15.579   3.998  0.1437 -0.1468  0.1438
16306PP      PP26410   1.124   5.688   0.990 -0.0393  0.1650 -0.2088
16307PP      PP26411   9.170   7.434   2.531 -0.1464 -0.0116  0.1746
16308PP      PP26412   1.911  13.272   0.623 -0.2567 -0.1146 -0.1107
16309PP      PP26413   6.523  11.159   3.310  0.0776 -0.1640  0.0720
16310PP      PP26414   5.691   2.268  12.221  0.0899 -0.2543 -0.1092
16311PP      PP26415   0.561   8.975   5.637 -0.0513 -0.2206 -0.1325
16312PP      PP26416  11.094   8.932   4.247 -0.3370  0.0939  0.2186
16313PP      PP26417   0.962  13.374  12.931 -0.3415 -0.1071  0.0129
16314PP      PP26418   2.103   5.689   0.195 -0.0545  0.3538 -0.3823
16315PP      PP26419  12.443   0.955  11.359  0.0780  0.0061 -0.2433
16316PP      PP26420   4.208  10.985   3.511  0.1960  0.0785  0.0833
16317PP      PP26421  12.409   2.431   2.727 -0.0798 -0.0157  0.2145
16318PP      PP26422   9.934   4.266   0.979  0.2232 -0.1527  0.0556
16319PP      PP26423  13.855   9.931  12.149 -0.2002  0.0388  0.0206
16320PP      PP26424   7.474  15.204   0.460  0.1042  0.1322  0.1187
16321PP      PP26425   0.298  10.411  12.924  0.0175 -0.1376 -0.0632
16322PP      PP26426  10.339   6.154  11.998 -0.1553 -0.1186  0.1097
16323PP      PP26427  12.563  15.478   1.472  0.4318  0.2368  0.0995
16324PP      PP26428   9.104   0.337   8.754  0.0732  0.1468 -0.1161
16325PP      PP26429   8.558   3.493   0.062  0.0267  0.2933  0.0207
16326PP      PP26430   3.730   2.406   3.464 -0.2495  0.1362 -0.0370
16327PP      PP26431   6.613  11.396   9.687 -0.1141  0.0203  0.1377
16328PP      PP26432  15.731   5.010   4.544  0.0054  0.0378  0.0030
16329PP      PP26433   2.329  15.542  11.676 -0.3151 -0.0103 -0.0804
16330PP      PP26434   9.624  15.088  11.690 -0.2436  0.2979  0.0777
16331PP      PP26435   1.301   4.106  10.788 -0.2164 -0.0232  0.3789
16332PP      PP26436  13.944   0.449   3.750 -0.1125 -0.0098  0.1197
16333PP      PP26437   7.124   0.249   8.133  0.0780  0.1855  0.1335
16334PP      PP26438   5.827   7.752  11.734  0.2725 -0.2228  0.0848
16335PP      PP26439   2.019   1.468   4.031  0.2220 -0.0456  0.2717
16336PP      PP26440   2.732  12.493   8.864  0.1710  0.2852  0.0551
16337PP      PP26441   5.199   4.368   3.445  0.0013 -0.1587 -0.0438
16338PP      PP26442   2.209  14.646   2.180  0.2109  0.0273 -0.1441
16339PP      PP26443   2.223   6.662   3.396  0.0765 -0.3449 -0.1435
16340PP      PP26444  11.852  15.121   0.557  0.1036  0.0391  0.0140
16341PP      PP26445  10.651   6.428   8.887  0.0566 -0.1146  0.0364
16342PP      PP26446   0.892   8.248   0.227 -0.0194  0.1311  0.0134
16343PP      PP26447  11.464  13.243   8.589  0.1115  0.3735  0.0238
16344PP      PP26448  11.075   0.210  10.754  0.0711 -0.0016 -0.1245
16345PP      PP26449   4.655   2.961  10.127 -0.0200 -0.1325 -0.1662
16346PP      PP26450  11.215   5.079   2.571  0.0135 -0.0334  0.0827
16347PP      PP26451  14.570   0.831   2.917  0.0091 -0.0859  0.1704
16348PP      PP26452  14.593   8.018  10.881 -0.1544  0.2787  0.3585
16349PP      PP26453   2.954   5.361   1.491 -0.0235  0.2170 -0.1651
16350PP      PP26454  14.694  15.807   4.495 -0.1030  0.1218 -0.0297
16351PP      PP26455   3.715  11.732  11.725 -0.1871  0.3580  0.0436
16352PP      PP26456  12.509  13.944  12.336 -0.0390  0.0414  0.1407
16353PP      PP26457   4.198  15.246  13.344 -0.0184 -0.3397 -0.0849
16354PP      PP26458   1.733   7.282   5.205 -0.0882  0.5142  0.0734
16355PP      PP26459   8.902  11.878   3.169 -0.1000  0.0386  0.1890
16356PP      PP26460   4.676   1.211  11.828  0.3202 -0.1173  0.1427
16357PP      PP26461  14.615   9.004  12.715 -0.1788  0.2084  0.2042
16358PP      PP26462  11.066   2.480  10.415 -0.1236  0.1540 -0.1185
16359PP      PP26463  11.961   8.676   2.474 -0.1258 -0.0963  0.0121
16360PP      PP26464   2.340   7.637   1.530  0.2783 -0.2632 -0.1658
16361PP      PP26465  10.832   0.155  11.891 -0.1873 -0.2274 -0.0372
16362PP      PP26466   8.290  15.725   0.407  0.0590  0.1634  0.3612
16363PP      PP26467   1.293  11.034  11.247  0.1123 -0.0251 -0.0148
16364PP      PP26468  10.310  13.427  12.924  0.1277 -0.0752 -0.1835
16365PP      PP26469  12.685   4.631   2.530  0.4642  0.2378  0.1606
16366PP      PP26470   7.114  15.583  10.098  0.2694 -0.1319  0.1607
16367PP      PP26471  14.079  13.812  12.267  0.2188 -0.3152 -0.0664
16368PP      PP26472  12.099   4.393  11.233 -0.0883  0.0939  0.1974
16369PP      PP26473   6.241   1.846   2.679 -0.1164  0.1093 -0.0454
16370PP      PP26474   9.377   4.330   1.031  0.3427  0.2227  0.3368
16371PP      PP26475  12.506   6.830   9.803 -0.0634 -0.1906 -0.3217
16372PP      PP26476  14.430  12.514   3.331  0.2406 -0.0985  0.0090
16373PP      PP26477   9.249   6.588   3.197  0.0641 -0.2305  0.1148
16374PP      PP26478  14.172   3.320   3.695 -0.2518  0.1446  0.1213
16375PP      PP26479   7.403   7.498  10.105  0.0602 -0.1049  0.1188
16376PP      PP26480   5.826   4.194  13.397 -0.1101  0.0249  0.0678
16377PP      PP26481  15.104   8.625   4.394  0.0673  0.4682 -0.0011
16378PP      PP26482   3.248  12.015   0.780  0.0612  0.1022 -0.1433
16379PP      PP26483   7.370   0.853   1.243 -0.0023  0.0489  0.2069
16380PP      PP26484   8.414   9.548   3.871 -0.2034  0.5217  0.5144
16381PP      PP26485   8.598  12.314  12.326  0.0851 -0.0621 -0.0332
16382PP      PP26486  13.555   1.955  12.362  0.1074  0.1574 -0.2874
16383PP      PP26487   4.408   0.756   1.397 -0.0379 -0.2481  0.0903
16384PP      PP26488  10.264   2.205   1.311 -0.1047 -0.0130  0.1779
16385PP      PP26489  11.699  15.321   0.998  0.1307 -0.2679 -0.0130
16386PP      PP26490  12.404   6.046   2.681  0.0206  0.0843  0.2463
16387PP      PP26491  13.938   4.174   1.949  0.0674  0.1485 -0.0556
16388PP      PP26492   3.610   4.671   9.673 -0.3089 -0.0894  0.0304
16389PP      PP26493   1.397  14.231   3.460  0.0565  0.0950  0.1192
16390PP      PP26494  13.953   4.381   3.282  0.1907 -0.0678  0.1216
16391PP      PP26495  12.911   2.192   4.052 -0.1691 -0.0698  0.1017
16392PP      PP26496  14.802  13.842   0.132 -0.2330 -0.0193  0.4028
16393PP      PP26497   0.259   8.503  10.200  0.0151  0.0402  0.0884
16394PP      PP26498   6.703   9.773  10.579 -0.0133  0.1840 -0.0585
16395PP      PP26499   2.343   7.753   4.541 -0.0184  0.1010 -0.1259
16396PP      PP26500   6.654  11.620  12.458  0.1262 -0.0477  0.0071
16397PP      PP26501  14.776  15.521   0.266  0.1744 -0.1642 -0.1406
16398PP      PP26502   7.316   1.192   0.358 -0.2571  0.1202 -0.3659
16399PP      PP26503  12.289   8.231   3.147  0.0754  0.0942 -0.0626
16400PP      PP26504  10.907  10.313   9.618 -0.1286  0.1586  0.3377
16401PP      PP26505   8.551   7.164  10.903 -0.0513 -0.1570  0.1104
16402PP      PP26506   1.058   2.018  10.819  0.0272  0.0660  0.0118
16403PP      PP26507   6.628  14.381   8.683  0.0532  0.4923 -0.0461
16404PP      PP26508  14.641   6.823   0.673 -0.1908 -0.0405  0.0195
16405PP      PP26509   2.143   0.119  11.383 -0.2152 -0.0790  0.1714
16406PP      PP26510   0.523   1.399  10.954  0.0266  0.1007 -0.0122
16407PP      PP26511   1.532  15.473  12.165  0.0061 -0.3550  0.0653
16408PP      PP26512   4.135   2.132   9.080  0.2579 -0.2012 -0.0224
16409PP      PP26513   3.718   1.476   3.535 -0.2111  0.2455 -0.1353
16410PP      PP26514  10.873   0.651   3.709  0.1267 -0.0724 -0.1186
16411PP      PP26515  11.415   6.105  10.809 -0.0564  0.1849  0.0252
16412PP      PP26516  12.860  13.833   9.712 -0.1298  0.0473  0.0353
16413PP      PP26517   0.798  10.089   9.811 -0.0452  0.1424 -0.0689
16414PP      PP26518  14.816   0.961  12.568  0.0137  0.0901 -0.0644
16415PP      PP26519   7.130   3.956  12.931 -0.2753  0.0882 -0.2119
16416PP      PP26520   7.709   0.046   0.888  0.1692 -0.0986  0.0055
16417PP      PP26521  13.704  11.904   1.708  0.1708 -0.3596  0.1283
16418PP      PP26522   6.282   2.980  10.290  0.1260  0.0226  0.1130
16419PP      PP26523   4.729  13.405   9.057 -0.1056  0.1369 -0.0539
16420PP      PP26524   7.028   2.689   9.402 -0.2563 -0.0175 -0.0361
16421PP      PP26525  10.323  11.922   2.716  0.3880  0.0421 -0.1262
16422PP      PP26526   6.473  12.788   9.025 -0.1276 -0.2299  0.0532
16423PP      PP26527  13.609   4.862   3.768 -0.1628 -0.1839 -0.3016
16424PP      PP26528   4.714   9.008   1.878  0.2441 -0.1999  0.2060
16425PP      PP26529   2.540  15.457  12.949 -0.1022 -0.1373  0.0344
16426PP      PP26530  14.924  11.054  12.737  0.1190 -0.0501  0.2368
16427PP      PP26531   8.671  12.386   2.237  0.1963 -0.0395 -0.4135
16428PP      PP26532   3.212   0.549   0.253  0.1194  0.0363 -0.0450
16429PP      PP26533   8.104   7.131   2.524 -0.1974 -0.1032  0.1167
16430PP      PP26534   0.186  15.496   9.405 -0.0213  0.2642 -0.0780
16431PP      PP26535  14.958   2.903   3.190 -0.2265 -0.0259 -0.0110
16432PP      PP26536   6.127   3.312  11.312 -0.2561 -0.2853 -0.2756
16433PP      PP26537  12.274   5.863  11.940  0.0032  0.2969 -0.0159
16434PP      PP26538  12.045  15.800   8.714  0.1092 -0.2269  0.0666
16435PP      PP26539   0.966   9.908  10.914  0.1621  0.0946 -0.0060
16436PP      PP26540   1.689   3.993   2.371  0.0921 -0.4395  0.1153
16437PP      PP26541   7.036  14.771  13.039 -0.1865  0.3744 -0.0012
16438PP      PP26542   7.978  12.532  12.613  0.0999  0.1481  0.0864
16439PP      PP26543  10.204   6.398   3.490  0.0806 -0.0732  0.0108
16440PP      PP26544  13.862   1.342   9.207 -0.2351 -0.0497  0.1768
16441PP      PP26545   7.712   5.411  13.297 -0.0956 -0.0475  0.1294
16442PP      PP26546   3.439  11.383   1.430  0.0875 -0.1855 -0.1729
16443PP      PP26547  10.873   5.469   1.774  0.0068 -0.2518  0.1199
16444PP      PP26548   5.627  10.822   0.408  0.0704  0.0349 -0.2229
16445PP      PP26549  14.744  10.298  11.786  0.3484 -0.5573 -0.3080
16446PP      PP26550  14.117   1.607   0.605  0.0935 -0.1036 -0.1583
16447PP      PP26551   0.288   2.082  13.190  0.0630  0.0862 -0.0944
16448PP      PP26552   5.559  10.102   3.019 -0.2254 -0.0245  0.2702
16449PP      PP26553  10.567   2.371   0.412  0.1746  0.1327  0.3205
16450PP      PP26554   3.613  12.941  13.337 -0.0682  0.1946  0.2101
16451PP      PP26555   5.242   3.870   2.801 -0.2446 -0.1172 -0.1265
16452PP      PP26556   8.015  11.304   9.778  0.2104 -0.0807  0.4120
16453PP      PP26557  10.772  15.839   2.594 -0.5016 -0.1016  0.0129
16454PP      PP26558   8.216  13.319   8.861  0.0803 -0.0034  0.2719
16455PP      PP26559   4.960   3.708  11.190  0.1967  0.0956 -0.1658
16456PP      PP26560   6.069   0.153  11.952  0.3000 -0.0163 -0.0738
16457PP      PP26561   3.014  11.568   9.035  0.0736  0.4677  0.1892
16458PP      PP26562   4.104  10.491  12.386  0.0950  0.2338  0.0022
16459PP      PP26563  10.061   8.003   2.619 -0.0545  0.0021 -0.2060
16460PP      PP26564   8.854   4.440   3.217 -0.0584 -0.1417 -0.1230
16461PP      PP26565  12.029   4.364   4.744  0.3931  0.1586  0.3225
16462PP      PP26566  15.321   4.694   1.824  0.3972  0.0346  0.0826
16463PP      PP26567  14.668  14.099   0.579 -0.1744  0.0802 -0.1249
16464PP      PP26568   6.863   4.124  11.538 -0.2863  0.3223  0.1368
16465PP      PP26569   9.158  12.678   1.380 -0.1552  0.0104 -0.1595
16466PP      PP26570   1.607   1.981  11.226  0.1358  0.1752 -0.2331
16467PP      PP26571  11.773   3.431   0.934  0.1059  0.1430  0.1851
16468PP      PP26572   1.909  15.258  11.895 -0.2186  0.1252  0.2080
16469PP      PP26573  14.931  14.948  13.310  0.2865 -0.1325 -0.0436
16470PP      PP26574   9.958  12.784  13.422 -0.0695  0.1975 -0.3510
16471PP      PP26575   4.175   8.220  11.721  0.0751 -0.0402  0.0166
16472PP      PP26576   3.451   3.380  11.140 -0.0950 -0.0812 -0.2235
16473PP      PP26577  15.619   4.508   2.266 -0.1933 -0.0293 -0.1624
16474PP      PP26578  14.281   5.127   0.257 -0.0883  0.0890  0.0476
16475PP      PP26579   8.251   5.567   2.712 -0.0548 -0.2479 -0.2935
16476PP      PP26580   6.157   2.783   2.872 -0.1013  0.2222  0.0091
16477PP      PP26581   8.750  10.183   8.979 -0.1262 -0.0130 -0.0418
16478PP      PP26582  14.508   4.832   1.585  0.2195  0.1445 -0.0712
16479PP      PP26583  13.590  10.799   3.168  0.2451  0.1970  0.1788
16480PP      PP26584  13.212  10.123  12.451 -0.0145 -0.0839 -0.0225
16481PP      PP26585   7.207   0.186  10.625 -0.2267 -0.0348 -0.4898
16482PP      PP26586   1.628   2.906   4.627  0.0385 -0.0717  0.3505
16483PP      PP26587  13.149   5.081  10.382  0.0513 -0.0419  0.3074
16484PP      PP26588   7.488   1.657   0.399 -0.0895 -0.3298 -0.1132
16485PP      PP26589  10.592   2.646   3.245 -0.1862  0.2448 -0.3645
16486PP      PP26590   4.414   4.075   3.834  0.0545 -0.0199 -0.2249
16487PP      PP26591  15.519  10.410  12.380  0.3477  0.1879 -0.3229
16488PP      PP26592   6.542   9.456   1.188  0.0139 -0.1651  0.3879
16489PP      PP26593  11.834   7.327   9.708  0.2045 -0.1467  0.0599
16490PP      PP26594   5.187   6.537  10.931  0.0832 -0.2344  0.2779
16491PP      PP26595   5.883  15.024  12.920 -0.0352  0.1883 -0.0932
16492PP      PP26596  13.746  11.650  13.152  0.5718 -0.3977  0.4944
16493PP      PP26597   4.787   0.895  11.354  0.0436  0.3229 -0.0503
16494PP      PP26598   5.101   9.946   3.181  0.0804  0.2863  0.2876
16495PP      PP26599  11.798   5.224   4.743 -0.1809 -0.2196  0.2042
16496PP      PP26600  15.251  12.729   9.808 -0.0940 -0.2840  0.1321
16497PP      PP26601   4.120  12.822  12.851 -0.1693 -0.1479  0.0332
16498PP      PP26602  14.266   3.842   4.748  0.0531 -0.1204  0.1367
16499PP      PP26603   6.050   9.074   3.174 -0.0019 -0.1644 -0.1290
16500PP      PP26604   9.134   2.846   1.808 -0.2296  0.2151 -0.1390
16501PP      PP26605   6.710  15.774   9.690  0.2909 -0.0096  0.1580
16502PP      PP26606   9.772   3.079   8.858  0.1247  0.1021  0.0502
16503PP      PP26607   8.178   8.978  11.028  0.1955 -0.0736 -0.0795
16504PP      PP26608   1.610  12.335   0.967 -0.0956 -0.1648 -0.2093
16505PP      PP26609   3.704   6.816   2.594 -0.0175 -0.0756 -0.1507
16506PP      PP26610   5.608   4.509   4.574  0.1156 -0.1626 -0.2366
16507PP      PP26611   7.695   2.029   3.280 -0.2554  0.0035  0.1684
16508PP      PP26612   8.860   6.540  12.595  0.4164 -0.1418  0.0391
16509PP      PP26613   9.055  14.254  12.653 -0.1804 -0.0301 -0.2221
16510PP      PP26614   4.982   5.126  10.946 -0.3245  0.1437 -0.1141
16511PP      PP26615   1.961   4.768   2.134  0.2000 -0.3024 -0.1827
16512PP      PP26616   7.736   1.439   8.263 -0.1855  0.1847  0.0413
16513PP      PP26617   0.725   3.638  11.065  0.0652 -0.0658  0.3337
16514PP      PP26618  10.364   2.726   4.185 -0.0940 -0.0069 -0.2398
16515PP      PP26619   1.676   8.828  10.851 -0.0340  0.0549 -0.0962
16516PP      PP26620   7.950   5.903   2.393  0.1568  0.0651  0.0816
16517PP      PP26621  14.230   9.939  13.306  0.1919 -0.1980 -0.0520
16518PP      PP26622   1.329   6.881   1.531 -0.2008 -0.0691  0.0225
16519PP      PP26623   9.930  13.060  12.120 -0.2545  0.1848  0.1414
16520PP      PP26624   5.919  11.362  10.178  0.0609  0.0897 -0.0876
16521PP      PP26625   4.301   3.711   2.061 -0.1007  0.0672  0.0484
16522PP      PP26626   2.519  14.832  11.149  0.2490  0.0100  0.3039
16523PP      PP26627   9.267  11.594   3.528 -0.0827  0.4027  0.0226
16524PP      PP26628   2.471   1.028   1.058 -0.0367  0.3522 -0.0780
16525PP      PP26629  13.432   3.575   1.197 -0.1298  0.3178  0.1065
16526PP      PP26630  14.955   5.541   3.774  0.1370  0.1234 -0.1299
16527PP      PP26631  10.241   2.024  12.306  0.0612 -0.0174 -0.0182
16528PP      PP26632   5.432   2.308   1.881 -0.1266 -0.2292  0.1706
16529PP      PP26633   6.503  15.292   9.369  0.1028  0.2702 -0.2380
16530PP      PP26634   6.679  14.784   2.766  0.1503  0.2613  0.1116
16531PP      PP26635   0.806  14.781  11.993 -0.3125 -0.0733  0.0760
16532PP      PP26636   9.919   2.733  11.885  0.1702 -0.0913  0.4186
16533PP      PP26637   7.080   9.843  11.703  0.4308  0.2194 -0.1761
16534PP      PP26638   6.800   3.619  11.787 -0.1626 -0.1323 -0.1967
16535PP      PP26639   9.689   4.766   3.469  0.1645 -0.0901 -0.1459
16536PP      PP26640   3.832   6.395   1.586 -0.4344  0.0239  0.2343
16537PP      PP26641  10.158  15.531  11.059  0.1417 -0.0664  0.3003
16538PP      PP26642   1.012   4.245   3.882 -0.0090  0.5389 -0.0725
16539PP      PP26643  13.585   9.268   3.106  0.2517  0.0207 -0.1926
16540PP      PP26644   2.904   0.391  11.996 -0.0221 -0.1914  0.2258
16541PP      PP26645  12.936  14.559   3.554 -0.3595  0.2018 -0.3340
16542PP      PP26646   7.365  14.860   0.838 -0.1444 -0.1658  0.2890
16543PP      PP26647  14.876   0.521   2.088 -0.0408  0.0849 -0.3921
16544PP      PP26648  14.388   7.247   0.759 -0.0100 -0.1000  0.0491
16545PP      PP26649  10.832   4.118   1.396 -0.3774  0.0599  0.0361
16546PP      PP26650  15.640  12.638   3.651  0.0433  0.3972  0.2496
16547PP      PP26651  12.201   9.732   9.734 -0.1682 -0.0821 -0.1558
16548PP      PP26652   0.493   2.580   1.034  0.0576  0.0723 -0.1240
16549PP      PP26653   0.068  14.180   8.705  0.2623  0.1728 -0.4043
16550PP      PP26654   7.221   7.761  10.912 -0.2199 -0.1749  0.1950
16551PP      PP26655  14.201   0.824   4.082 -0.1526  0.0096  0.0340
16552PP      PP26656  13.164   5.794  12.458 -0.2200  0.2704  0.2228
16553PP      PP26657  11.796  10.134   9.679  0.0553 -0.3407  0.2689
16554PP      PP26658   9.899   4.988  13.294  0.1409 -0.0770  0.3581
16555PP      PP26659   9.136   6.777  12.255  0.1400 -0.4730 -0.2130
16556PP      PP26660  14.720  14.866   9.845  0.2277  0.0225 -0.1220
16557PP      PP26661   4.337   6.509  13.214  0.4018 -0.0356  0.1840
16558PP      PP26662  10.234  11.965   9.952  0.4994 -0.1171 -0.0027
16559PP      PP26663  13.238  14.305   8.987  0.1531 -0.0577 -0.0112
16560PP      PP26664  13.136   7.332   3.592 -0.4785 -0.2508 -0.2330
16561PP      PP26665   7.415   1.065   3.373 -0.0455  0.0516 -0.1852
16562PP      PP26666   4.952   0.896   1.228 -0.0284  0.0883 -0.1769
16563PP      PP26667   3.632  14.132   0.637 -0.1682  0.1762 -0.3008
16564PP      PP26668  14.605   9.881   3.512  0.4387 -0.1216 -0.0754
16565PP      PP26669  10.002   4.712   8.855 -0.1703  0.2420 -0.0742
16566PP      PP26670   0.598   6.030   0.193 -0.1142  0.1826  0.0200
16567PP      PP26671  15.892   9.542  10.461 -0.1361 -0.0531  0.0291
16568PP      PP26672  13.604   7.602  10.280  0.0219 -0.3378  0.0015
16569PP      PP26673  10.530   8.356   9.773 -0.2907  0.1969  0.1211
16570PP      PP26674   2.102   0.711  12.950 -0.2456  0.1100 -0.2302
16571PP      PP26675   0.985   8.760  12.492  0.0405 -0.0975  0.0117
16572PP      PP26676   5.079   3.688   1.777 -0.0334  0.1463 -0.0072
16573PP      PP26677   3.277  10.426  11.343  0.0994  0.1832 -0.0415
16574PP      PP26678  13.799   0.558   1.435  0.2096  0.1162  0.1670
16575PP      PP26679   0.825   8.040   9.981  0.1634  0.0712 -0.1917
16576PP      PP26680   2.488   3.387   4.311  0.1950  0.1645  0.0727
16577PP      PP26681  10.365   1.588   2.674  0.1363  0.3704 -0.1333
16578PP      PP26682   2.414   6.438   2.546  0.0653  0.0504  0.1817
16579PP      PP26683  13.388  12.220  11.612 -0.0354  0.1763  0.0410
16580PP      PP26684  10.015   0.602  10.072 -0.0445 -0.1029 -0.2522
16581PP      PP26685  15.759  12.216   2.615  0.0251 -0.4091 -0.0305
16582PP      PP26686  12.947   6.485  11.921 -0.0099 -0.1064 -0.2610
16583PP      PP26687  12.039   4.284   0.139  0.1701 -0.0966 -0.3863
16584PP      PP26688   5.418  15.747  12.354  0.0784 -0.0368 -0.0912
16585PP      PP26689   8.285   6.395   3.270  0.1974  0.0552  0.1317
16586PP      PP26690   3.455  14.965  10.653  0.2005  0.2765 -0.2197
16587PP      PP26691  15.258  12.266   9.966 -0.0388 -0.2249 -0.2405
16588PP      PP26692   2.267   5.165   2.144  0.0140  0.0054  0.0097
16589PP      PP26693   6.388  12.673  10.419  0.1676  0.1882  0.1409
16590PP      PP26694   1.932   6.375  13.294  0.1887 -0.0617  0.1563
16591PP      PP26695  10.687  12.225  12.037 -0.1652 -0.0757 -0.4669
16592PP      PP26696   1.927  11.716   2.878  0.4658 -0.0356 -0.2735
16593PP      PP26697   1.341   8.963   2.109  0.0481  0.0791 -0.3175
16594PP      PP26698  14.413   4.136  10.192  0.2140 -0.0698  0.0173
16595PP      PP26699  11.487   4.099   3.356 -0.2217  0.1790 -0.3129
16596PP      PP26700  12.387   8.238  10.510 -0.2295 -0.2005 -0.3242
16597PP      PP26701   4.565   2.438  13.121  0.1423 -0.0028 -0.0536
16598PP      PP26702  14.391   3.722  12.467 -0.0315 -0.2083  0.3600
16599PP      PP26703   5.267  13.083   9.912 -0.1531 -0.0677  0.3522
16600PP      PP26704   2.320   8.655  11.673  0.0751 -0.2851  0.2058
16601PP      PP26705  13.130  11.802  10.290 -0.1723 -0.0643 -0.0257
16602PP      PP26706   8.114  15.278  13.100  0.0247  0.0602  0.0829
16603PP      PP26707   2.551  10.488  10.854 -0.0844  0.0019 -0.2823
16604PP      PP26708   0.280  15.052  10.147 -0.1303  0.3296 -0.0775
16605PP      PP26709   3.313   4.644   4.389  0.1101  0.1216 -0.2293
16606PP      PP26710  15.210   9.917   1.628  0.2116  0.1470 -0.0202
16607PP      PP26711   0.708  11.881  11.348  0.2871 -0.0411  0.4819
16608PP      PP26712  11.459  11.666   8.496  0.0893  0.2091  0.1492
16609PP      PP26713  15.771   7.531   3.540  0.1406  0.2128 -0.1169
16610PP      PP26714  12.334   9.905   0.808 -0.2047  0.1266  0.2168
16611PP      PP26715  15.356  14.642  13.308 -0.0283  0.2025  0.3651
16612PP      PP26716   4.168   4.967   4.793 -0.0041 -0.3443 -0.2114
16613PP      PP26717   6.320   9.864   1.560 -0.3245 -0.0376  0.0910
16614PP      PP26718  15.316   1.522  11.433  0.2297 -0.0913  0.1062
16615PP      PP26719   9.645   5.988   9.987  0.1275  0.0014 -0.0816
16616PP      PP26720   8.333   8.203  10.933 -0.0619  0.0700  0.3154
16617PP      PP26721   1.657  15.634   9.162  0.0815  0.2760  0.2901
16618PP      PP26722  12.435   3.636   2.316 -0.0643  0.0218 -0.1053
16619PP      PP26723  11.705   0.688   0.312  0.0598  0.1457 -0.0920
16620PP      PP26724   0.265   2.740   2.459  0.2173 -0.0115  0.2275
16621PP      PP26725   4.539   6.327   0.803  0.1670 -0.0899 -0.0371
16622PP      PP26726   1.278   3.064  11.849  0.1189  0.0721  0.0243
16623PP      PP26727   2.731   1.856   3.412  0.0992  0.2471 -0.3927
16624PP      PP26728   4.500   4.500  13.187 -0.1621 -0.0344  0.0998
16625PP      PP26729   8.914  14.695   3.442 -0.0783 -0.2678 -0.2470
16626PP      PP26730   7.981   4.412   9.227 -0.3046  0.1103  0.1432
16627PP      PP26731   5.496   5.828  11.340 -0.3833  0.2797  0.0916
16628PP      PP26732  14.653  12.945   3.211 -0.0718  0.0412 -0.0152
16629PP      PP26733   7.546   6.789   9.251 -0.1930  0.0014  0.0921
16630PP      PP26734   3.866   2.687   3.041 -0.2123  0.1649 -0.0641
16631PP      PP26735   5.742   5.339   2.989  0.1496  0.1598 -0.0404
16632PP      PP26736   1.189   9.513  13.134 -0.1385 -0.1482 -0.0237
16633PP      PP26737  10.897   4.710   2.451  0.2961  0.0512 -0.2966
16634PP      PP26738  11.133  12.251  12.321 -0.3059  0.1137 -0.2810
16635PP      PP26739   1.214   1.864   0.033 -0.2117 -0.1347 -0.1435
16636PP      PP26740   5.467  10.591  10.113 -0.3866 -0.0946  0.0297
16637PP      PP26741   9.261   6.732   1.843 -0.1194 -0.3298  0.0963
16638PP      PP26742  14.654   7.127   3.540 -0.0170  0.1888 -0.1597
16639PP      PP26743   6.619   8.687   0.303 -0.0429 -0.3002 -0.0304
16640PP      PP26744  11.252  13.184   9.996 -0.4576  0.1350  0.1044
16641PP      PP26745  14.170  10.944   1.581  0.0920  0.0172 -0.2793
16642PP      PP26746   1.754   9.811   3.607 -0.0827 -0.2303  0.0367
16643PP      PP26747   7.074   4.580   3.857  0.1480 -0.0937  0.1700
16644PP      PP26748  14.194   9.408  11.452 -0.2670 -0.0794  0.1761
16645PP      PP26749   1.247   1.898  10.224  0.2703  0.0156 -0.1493
16646PP      PP26750   3.859   8.630  12.830 -0.0747 -0.0277 -0.1356
16647PP      PP26751   9.661  13.051  10.486  0.0986 -0.1080 -0.0669
16648PP      PP26752   6.142   4.484  12.967 -0.1716  0.1359  0.2394
16649PP      PP26753   7.877   8.907  12.357  0.1085  0.0613  0.3421
16650PP      PP26754  11.555   9.090  12.297 -0.3567  0.1434 -0.3834
16651PP      PP26755   0.606  12.669  11.297  0.0045  0.0260  0.0089
16652PP      PP26756   7.566   8.117   1.418  0.0091 -0.2532 -0.1813
16653PP      PP26757   1.248  14.600  11.885 -0.0647  0.0298  0.2438
16654PP      PP26758   7.408   3.046  11.276  0.0356  0.1304 -0.0775
16655PP      PP26759   8.398   7.516   3.396  0.0766 -0.1775  0.1596
16656PP      PP26760  13.824   5.963   2.736  0.2755 -0.3584  0.2341
16657PP      PP26761   6.835  15.274   9.793  0.1520  0.1983  0.0650
16658PP      PP26762   5.336  10.734   4.905 -0.0541 -0.1185 -0.3233
16659PP      PP26763  14.936   9.666  12.798  0.1169 -0.3230  0.3322
16660PP      PP26764  15.195  15.103   9.167 -0.4217  0.1438  0.1407
16661PP      PP26765   5.060  11.600   9.675  0.0802 -0.1116  0.3291
16662PP      PP26766   1.221  11.763   2.997 -0.0565 -0.2482 -0.3168
16663PP      PP26767  11.049   7.655  11.679  0.0039  0.0125  0.1185
16664PP      PP26768  15.433  15.222   2.300  0.3273 -0.0086  0.2240
16665PP      PP26769   3.511  12.789  11.164  0.1059  0.0238  0.1128
16666PP      PP26770  13.076   6.010  10.703  0.2158  0.1382 -0.2066
16667PP      PP26771  12.749   1.971   2.319  0.5256  0.0111 -0.3560
16668PP      PP26772   3.728   8.126  10.567  0.0240  0.1685 -0.1936
16669PP      PP26773  15.637   6.591   3.157 -0.0203  0.1115 -0.2479
16670PP      PP26774   2.662  11.539  11.985 -0.2423 -0.0395 -0.3480
16671PP      PP26775   6.070  10.979   3.832  0.1495 -0.2649  0.2227
16672PP      PP26776   0.007   0.546   9.918  0.0173 -0.3427 -0.1544
16673PP      PP26777   0.228   3.139   1.163  0.3693 -0.2997 -0.1579
16674PP      PP26778   5.052   7.454  10.917 -0.2039  0.2828 -0.0852
16675PP      PP26779  12.443  11.004  12.068 -0.5459  0.0249  0.1470
16676PP      PP26780   4.269   8.380   1.267  0.1019  0.6041 -0.3383
16677PP      PP26781  11.023   4.214   3.661 -0.0910  0.0493 -0.2252
16678PP      PP26782  14.232  12.440   2.323 -0.1778  0.1499  0.0001
16679PP      PP26783   3.672   9.851   1.257  0.0906 -0.0020 -0.0329
16680PP      PP26784  15.771   1.012   2.218  0.0364 -0.1721  0.1693
16681PP      PP26785  11.759  12.045   2.831  0.0085 -0.0888 -0.1041
16682PP      PP26786   0.384   9.258  11.289 -0.0801  0.2140  0.1262
16683PP      PP26787   6.840   5.674  13.124  0.1204  0.2220  0.0591
16684PP      PP26788   7.656   2.689   0.378  0.0258 -0.1686 -0.0664
16685PP      PP26789  15.406   6.180  11.692 -0.1173 -0.1177  0.0554
16686PP      PP26790  10.675   2.187  10.954  0.1689 -0.1739  0.0722
16687PP      PP26791   2.590  14.466   3.617 -0.1940  0.1840 -0.2222
16688PP      PP26792   2.119  10.771   1.676 -0.1275  0.1135  0.1229
16689PP      PP26793   9.589   3.667   9.439  0.1126  0.2468 -0.2453
16690PP      PP26794   3.937   6.530  12.899  0.2849 -0.1322  0.5494
16691PP      PP26795   8.081   2.175   2.943 -0.2160 -0.1420  0.0567
16692PP      PP26796   7.352  12.104   2.366  0.1513 -0.3157 -0.0941
16693PP      PP26797   3.209  10.012   1.267  0.0429  0.1545 -0.0955
16694PP      PP26798  10.707  11.012  11.103 -0.0216 -0.2723  0.1497
16695PP      PP26799   4.371   7.947   0.769  0.1853  0.0235  0.0330
16696PP      PP26800   0.154   2.416   3.981  0.3183 -0.1971  0.0319
16697PP      PP26801  15.028   0.327   1.126 -0.2964  0.1625  0.1092
16698PP      PP26802  13.840   1.731   9.747 -0.0595 -0.1169  0.3016
16699PP      PP26803  10.943   2.484   0.096 -0.0451  0.2286 -0.3467
16700PP      PP26804   0.086   0.619  11.609 -0.0027  0.2040 -0.1279
16701PP      PP26805   0.757   7.750  12.781 -0.3211  0.2794  0.2937
16702PP      PP26806   9.405   8.242  11.052  0.1732 -0.1546 -0.1031
16703PP      PP26807   6.652   7.411  10.200  0.0429 -0.0461 -0.1015
16704PP      PP26808  14.875  12.158  12.839 -0.2813 -0.3166  0.1779
16705PP      PP26809   3.626  11.698   3.064 -0.1938 -0.0488  0.1700
16706PP      PP26810  12.299  10.789   1.312 -0.2086  0.0884  0.0128
16707PP      PP26811  14.383   5.543   9.497  0.1192  0.0009  0.0989
16708PP      PP26812   9.589   0.118   2.840  0.0518 -0.2112  0.1844
16709PP      PP26813   5.225  10.090   2.610  0.3834  0.1618  0.0363
16710PP      PP26814  11.810   4.737   9.841 -0.0689 -0.2191  0.0060
16711PP      PP26815  11.999  14.681   9.958 -0.2471  0.1548  0.0054
16712PP      PP26816  12.602  15.396   2.500  0.1204  0.3341  0.0682
16713PP      PP26817   5.065  15.349   4.364  0.0571  0.1708 -0.0477
16714PP      PP26818  15.443   9.230  11.788 -0.2216  0.2210 -0.0027
16715PP      PP26819   3.058   7.600   4.973 -0.0121 -0.0704  0.0214
16716PP      PP26820   8.117   5.214   1.398  0.0062  0.1038 -0.0717
16717PP      PP26821   0.829  14.432  12.884 -0.3434 -0.0950 -0.2140
16718PP      PP26822  11.895  14.920   8.771  0.3771 -0.0812  0.1974
16719PP      PP26823   6.552   5.719  11.920  0.0389 -0.0546  0.2449
16720PP      PP26824   1.865   5.509  11.585  0.1301 -0.0712  0.1233
16721PP      PP26825  14.900  10.443   0.688  0.0900 -0.1791  0.0766
16722PP      PP26826  14.461   0.454  12.562  0.0431 -0.2134  0.2693
16723PP      PP26827   8.652   3.127  10.441  0.0741 -0.0397 -0.1044
16724PP      PP26828   4.833   8.350  13.415 -0.3481  0.3476 -0.0943
16725PP      PP26829  13.825   9.355   9.912  0.1558  0.0146 -0.3238
16726PP      PP26830   5.487  13.703  10.958 -0.0183  0.1863 -0.2022
16727PP      PP26831   1.531  14.229  12.055 -0.0277 -0.1800  0.0193
16728PP      PP26832   8.672   0.812   9.750 -0.0505 -0.1243 -0.1982
16729PP      PP26833   6.881  11.209  11.035  0.1306  0.3339  0.4275
16730PP      PP26834   8.179  15.468  11.204  0.1592  0.2128 -0.0913
16731PP      PP26835   3.488  15.422   2.756 -0.0866 -0.3627 -0.2313
16732PP      PP26836   3.709   6.869  11.068 -0.0083  0.0158 -0.1279
16733PP      PP26837   9.849  14.303  13.131 -0.0581 -0.0407 -0.1094
16734PP      PP26838  12.755   8.131   1.295  0.2486 -0.1551  0.0675
16735PP      PP26839   8.861   5.222  12.231  0.2935  0.0581 -0.0808
16736PP      PP26840   8.871  11.958   2.279  0.0480  0.0129 -0.0679
16737PP      PP26841  12.380  11.642   8.868 -0.1805  0.2181  0.2321
16738PP      PP26842  12.834  10.535  10.119 -0.3100  0.2061  0.1503
16739PP      PP26843   2.978   3.374   9.391 -0.1015 -0.0809 -0.2549
16740PP      PP26844   3.424   6.604   2.960  0.0848  0.1595 -0.0587
16741PP      PP26845   4.743  10.840   9.288  0.0003  0.0680 -0.2004
16742PP      PP26846   8.048   1.333  11.056 -0.2672 -0.2170  0.3700
16743PP      PP26847   9.857  10.497   2.935  0.0708 -0.0322  0.0348
16744PP      PP26848   3.996  13.921   1.366  0.5539 -0.1175  0.1469
16745PP      PP26849  11.987   4.466   3.454 -0.3705  0.1879  0.2366
16746PP      PP26850  14.660   9.834   2.410 -0.0984  0.2240  0.0717
16747PP      PP26851  15.560  13.974   3.513 -0.2009  0.1322  0.1114
16748PP      PP26852   2.512  11.211   3.727  0.0732 -0.0527 -0.0909
16749PP      PP26853   4.377   0.712  12.287  0.0767  0.1058  0.0029
16750PP      PP26854  11.889   3.772   2.971  0.2104  0.0394 -0.0864
16751PP      PP26855  13.791   3.459   9.967 -0.2414  0.2424 -0.4099
16752PP      PP26856   0.813  11.413   1.830  0.1919  0.0868 -0.2132
16753PP      PP26857  15.176   4.297   4.083  0.2242  0.0792 -0.0158
16754PP      PP26858  12.884   5.434  10.049  0.1505 -0.0662 -0.0016
16755PP      PP26859   2.160   7.795   2.221 -0.0235  0.2982  0.0028
16756PP      PP26860  10.295  12.894  11.657  0.0333 -0.4879 -0.1252
16757PP      PP26861  11.139   7.867   8.536  0.2898  0.2971  0.1185
16758PP      PP26862  13.367   2.858   0.612 -0.1157  0.0374  0.3022
16759PP      PP26863   1.418   9.142   0.283 -0.0257 -0.0453 -0.0939
16760PP      PP26864   8.619  15.678   9.448  0.2899  0.5560  0.0608
16761PP      PP26865   3.222   8.834   4.762  0.1752 -0.1712  0.0771
16762PP      PP26866   8.179  12.026   5.041  0.1829 -0.1203 -0.1449
16763PP      PP26867   4.256  14.709   1.736  0.1760  0.1852 -0.2390
16764PP      PP26868   5.430   0.370   4.523 -0.0155  0.1391 -0.1822
16765PP      PP26869   9.814   9.689   0.419 -0.2634  0.1243 -0.1567
16766PP      PP26870  15.136   0.891  10.586 -0.0929 -0.1146  0.2403
16767PP      PP26871   3.262  11.697  10.517 -0.0969  0.0117 -0.1533
16768PP      PP26872  15.022   3.602   3.420  0.0765 -0.3954 -0.1456
16769PP      PP26873  10.125   6.859   1.214 -0.2563  0.1582 -0.1116
16770PP      PP26874  13.475   5.722  11.700 -0.2120  0.0907 -0.0544
16771PP      PP26875   1.449  14.797   8.844  0.2356  0.0430  0.3929
16772PP      PP26876  10.213   8.306   3.020 -0.1741 -0.1934  0.0533
16773PP      PP26877   3.270  13.660   2.119  0.0176 -0.3104  0.0100
16774PP      PP26878   8.501   4.584   3.696  0.3687 -0.0854  0.0931
16775PP      PP26879  14.497  15.268   3.898  0.1819 -0.3340 -0.2747
16776PP      PP26880  14.856  10.748  12.090 -0.0768 -0.0884  0.5221
16777PP      PP26881   6.666  11.482   4.450  0.0816 -0.1211 -0.2508
16778PP      PP26882   4.528  12.485   2.360  0.1021  0.0926  0.0030
16779PP      PP26883   1.507   5.947   0.649 -0.1057 -0.0347  0.0031
16780PP      PP26884   1.401   1.648   8.823 -0.0323 -0.0586 -0.0610
16781PP      PP26885   1.758   3.874  13.418 -0.0526 -0.1047 -0.1123
16782PP      PP26886  12.178   5.118   9.948  0.1596 -0.2617  0.0670
16783PP      PP26887  12.799  13.792  13.284 -0.4135  0.0116  0.0664
16784PP      PP26888  12.032  12.961  12.318  0.1568  0.2656  0.0630
16785PP      PP26889   6.316  11.625  12.134 -0.1032 -0.1401 -0.1345
16786PP      PP26890   1.061  13.081   8.913 -0.3140  0.0439  0.0037
16787PP      PP26891   3.155   1.532  10.634  0.0836  0.1600 -0.1588
16788PP      PP26892  10.883   0.838  13.339 -0.1538 -0.3422 -0.2050
16789PP      PP26893  12.997   7.966   9.012 -0.1697  0.2473 -0.1533
16790PP      PP26894  14.086  11.666  10.469 -0.0717  0.2207 -0.0768
16791PP      PP26895  13.985   7.994  10.741 -0.1325  0.0077 -0.1271
16792PP      PP26896  15.236   6.746  11.121  0.1403  0.0628 -0.1844
16793PP      PP26897   3.487  14.076  10.363 -0.0732  0.2011 -0.2838
16794PP      PP26898  15.050   6.919   5.085  0.1082 -0.0280  0.1542
16795PP      PP26899  11.571   5.031   8.501 -0.0068  0.2421  0.0459
16796PP      PP26900   9.206   2.028   1.125 -0.1009  0.0206 -0.0601
16797PP      PP26901   3.479   4.174  10.633  0.1709  0.1534 -0.0032
16798PP      PP26902   6.461   8.358  11.890 -0.3491 -0.0625 -0.0956
16799PP      PP26903   4.043  15.333   2.615  0.0495 -0.0521  0.0572
16800PP      PP26904   2.105  12.594   1.163  0.1455  0.0314 -0.1325
16801PP      PP26905  15.665   0.744  12.967  0.2793 -0.0459  0.0352
16802PP      PP26906   1.654   0.124   9.522 -0.1945 -0.0896  0.0689
16803PP      PP26907  10.645   3.597   4.318  0.2714 -0.1322  0.1244
16804PP      PP26908   4.696   6.795   1.044  0.2533  0.0909  0.0300
16805PP      PP26909  13.602   6.580   0.071 -0.0825  0.1535  0.1675
16806PP      PP26910  10.519   3.453  11.270  0.0264 -0.2832 -0.5743
16807PP      PP26911   7.063   3.597  12.203  0.0153  0.0000  0.0992
16808PP      PP26912  10.363   3.995  10.955  0.0455 -0.0722  0.1533
16809PP      PP26913  11.220   9.266   3.312  0.0099  0.0132 -0.4397
16810PP      PP26914   4.388   1.176  10.771  0.1031  0.1199 -0.0901
16811PP      PP26915  13.049   5.524  11.870 -0.0491  0.0298 -0.3251
16812PP      PP26916   5.270   4.752  12.739 -0.1360 -0.0554 -0.4219
16813PP      PP26917  14.262  14.136  12.628 -0.1223 -0.1015  0.0336
16814PP      PP26918   2.713   9.722   1.326  0.1485  0.0397  0.0036
16815PP      PP26919  10.880   3.285  11.649  0.3778  0.0339 -0.0529
16816PP      PP26920   0.122   2.821   9.932  0.0883  0.2444 -0.2426
16817PP      PP26921  10.732   5.907   8.969 -0.1856 -0.1806  0.3139
16818PP      PP26922  12.631   6.774   7.051  0.0495 -0.0464 -0.0483
16819PP      PP26923  14.888   0.719   3.622  0.2176 -0.2603 -0.3387
16820PP      PP26924   4.694  11.032  11.652  0.1661  0.1997  0.1377
16821PP      PP26925   3.541  10.754   0.656 -0.1148  0.3435 -0.0243
16822PP      PP26926  10.344   4.434   8.595  0.3062 -0.0135  0.0867
16823PP      PP26927   3.718   5.675  11.028  0.1674  0.2006 -0.3818
16824PP      PP26928   9.808   2.985   3.584  0.0543  0.4527 -0.0465
16825PP      PP26929   9.223  14.050  11.636 -0.0954  0.0946  0.2007
16826PP      PP26930   7.692  10.238   1.081  0.0871  0.1682  0.2171
16827PP      PP26931  11.183   3.365   9.794  0.0396 -0.1979 -0.0721
16828PP      PP26932   0.724  11.047   1.453 -0.2014  0.4696 -0.3397
16829PP      PP26933   9.535   7.097   2.650  0.0553 -0.0662  0.3606
16830PP      PP26934   3.732   4.047   0.900  0.1167 -0.3937  0.1580
16831PP      PP26935  13.996  12.833   9.231 -0.1831 -0.1694 -0.1242
16832PP      PP26936  10.801  15.419   1.421  0.1026 -0.1594  0.3157
16833PP      PP26937  13.229   7.188  12.892 -0.1699 -0.1346 -0.4053
16834PP      PP26938   4.273   2.757   1.089  0.1219  0.3353 -0.3231
16835PP      PP26939  13.750   9.093  11.854  0.1723  0.0942  0.0266
16836PP      PP26940  12.580   9.731   0.007  0.2200 -0.2586 -0.1353
16837PP      PP26941  12.887   7.564   2.787  0.0575 -0.1330  0.4481
16838PP      PP26942   5.410   9.159   0.952  0.2920  0.0195  0.2149
16839PP      PP26943   7.539  10.294   2.921 -0.1071  0.0942 -0.0176
16840PP      PP26944   4.685   9.675   0.616 -0.0747  0.0172  0.0638
16841PP      PP26945   2.857  13.483   2.940 -0.3021  0.5596 -0.3400
16842PP      PP26946  14.364  11.594   2.317 -0.1799 -0.2622  0.1901
16843PP      PP26947  13.730   7.232   0.864  0.0493 -0.0640  0.1010
16844PP      PP26948   5.214  14.657   1.513  0.0291  0.0939  0.0419
16845PP      PP26949  14.939   4.164   0.001  0.3644  0.3019  0.1390
16846PP      PP26950   0.153   7.499   4.032  0.1918  0.0197 -0.2693
16847PP      PP26951   4.571   7.503   9.819 -0.0779  0.1610 -0.1853
16848PP      PP26952  15.274   9.013  10.219 -0.4470  0.0289  0.1319
16849PP      PP26953  10.954  11.705   8.600 -0.0652  0.1553  0.3682
16850PP      PP26954   8.048   6.114  11.795 -0.2262  0.0946  0.1805
16851PP      PP26955   8.058   5.824   4.203 -0.0956 -0.0566 -0.1838
16852PP      PP26956   9.807   6.937   8.676 -0.0873 -0.4428  0.1673
16853PP      PP26957   4.167   4.107   9.162 -0.2755 -0.2807  0.0086
16854PP      PP26958   2.198  14.274   0.785 -0.1184  0.1238 -0.0387
16855PP      PP26959   7.692  11.452   0.144  0.0824  0.2295 -0.0855
16856PP      PP26960   7.463  10.435   4.830  0.3106  0.1763 -0.0303
16857PP      PP26961   1.323  13.147   3.199 -0.2041 -0.1788  0.1327
16858PP      PP26962   0.077  14.082  12.263 -0.0546 -0.4328 -0.1129
16859PP      PP26963   4.181   9.424  11.276 -0.0113  0.0334  0.2200
16860PP      PP26964  13.770   9.033   4.751 -0.0458  0.2176  0.0392
16861PP      PP26965   0.477  10.202   2.115  0.2215 -0.3234  0.1190
16862PP      PP26966   9.368   0.096  12.001 -0.1698 -0.0218 -0.0154
16863PP      PP26967   2.934   5.192   2.932  0.3947 -0.0398  0.3436
16864PP      PP26968  14.651   7.586   2.029 -0.0650 -0.1253 -0.1395
16865PP      PP26969  11.862  15.337  11.726  0.1929  0.0482  0.4839
16866PP      PP26970  14.987   2.864   1.206 -0.0455  0.0384 -0.0304
16867PP      PP26971  11.136   1.837   8.778  0.1968 -0.1737 -0.1441
16868PP      PP26972  12.612  14.340   0.309 -0.0588  0.0778 -0.0641
16869PP      PP26973   3.370   9.430  10.396 -0.0213 -0.1399 -0.0670
16870PP      PP26974   8.969   1.177   0.524  0.3003 -0.0876  0.2061
16871PP      PP26975  12.716  13.399   8.410 -0.1285  0.0529  0.0301
16872PP      PP26976   8.807   3.821   2.247  0.0020  0.2144 -0.0445
16873PP      PP26977  13.591  10.673   9.398  0.0949  0.2240 -0.0779
16874PP      PP26978   5.714  14.358  11.737 -0.1530  0.1323  0.2528
16875PP      PP26979  10.336   1.888   0.334 -0.0492 -0.0746 -0.1282
16876PP      PP26980   2.003   2.071  11.474  0.1960  0.3745  0.0849
16877PP      PP26981   1.413   6.619   2.885  0.1798  0.1483  0.0854
16878PP      PP26982   9.832   6.630   2.279  0.0683  0.0691 -0.0069
16879PP      PP26983   5.586  12.029  11.658  0.1890 -0.0635 -0.1484
16880PP      PP26984   5.906   9.102  11.682  0.0092 -0.0122  0.1345
16881PP      PP26985   8.082  12.256   2.189 -0.0781 -0.0901  0.1294
16882PP      PP26986   0.921  14.433  11.372 -0.1843  0.4160  0.4193
16883PP      PP26987  11.413  13.182   3.719  0.1514 -0.3440 -0.0884
16884PP      PP26988  11.806   6.663   0.155  0.0730  0.2310 -0.0937
16885PP      PP26989   2.250   9.336   2.885 -0.2026 -0.1300 -0.0480
16886PP      PP26990   5.216  13.888   1.913 -0.3741 -0.2245  0.3160
16887PP      PP26991   7.444  13.933   2.045 -0.2884 -0.0886  0.0666
16888PP      PP26992   4.407  14.508  11.291 -0.1892 -0.0364 -0.0165
16889PP      PP26993   2.332  10.286   0.231 -0.2725 -0.2123  0.0612
16890PP      PP26994   1.744  13.804  13.366  0.0159  0.2012 -0.0120
16891PP      PP26995  13.815   7.227   8.888  0.0046  0.0204  0.2690
16892PP      PP26996  14.362  10.368   3.696  0.0596  0.3426 -0.3814
16893PP      PP26997  11.845   7.440   1.051  0.2572  0.3598  0.3272
16894PP      PP26998   6.483   9.897  12.326  0.1492  0.0398 -0.2590
16895PP      PP26999  15.670   6.230  11.233 -0.0884  0.1119  0.0351
16896PP      PP27000   7.244   8.122   9.681 -0.1970  0.0854 -0.2098
16897PP      PP27001  11.014  13.541   0.157 -0.4206 -0.0236 -0.0236
16898PP      PP27002   4.251  10.026   2.136  0.3816  0.0620 -0.3187
16899PP      PP27003   2.723   6.683  10.208  0.1028  0.1604  0.1233
16900PP      PP27004  14.474   7.118  10.434 -0.4012 -0.1990 -0.3119
16901PP      PP27005   8.785  13.115   1.365 -0.0288 -0.0853  0.1995
16902PP      PP27006   4.719  10.381  12.394 -0.0905 -0.0975  0.2044
16903PP      PP27007   6.025   6.451   4.167  0.2294  0.1726 -0.2482
16904PP      PP27008  14.450   1.990   4.036  0.0107 -0.4024  0.2253
16905PP      PP27009  12.108   7.363  12.787 -0.1027 -0.1571  0.1244
16906PP      PP27010   5.227   2.582   1.466 -0.0017 -0.1185  0.1190
16907PP      PP27011   5.517  11.179   9.810 -0.0453  0.0895  0.0499
16908PP      PP27012   2.112   3.896   0.411  0.1824  0.2994  0.0593
16909PP      PP27013  12.032   5.590   9.738 -0.0875  0.2401  0.3214
16910PP      PP27014  11.278   6.709  11.511 -0.0462 -0.2211  0.0591
16911PP      PP27015  11.507  12.994  13.037  0.0434 -0.1388  0.1566
16912PP      PP27016   6.292  15.176   1.775 -0.2573 -0.2037  0.1015
16913PP      PP27017   7.264  14.417  12.749 -0.0192 -0.3542  0.2455
16914PP      PP27018   6.226  12.746   4.059  0.3835  0.2344  0.2138
16915PP      PP27019   7.789   6.572   3.131 -0.1569 -0.1340  0.0855
16916PP      PP27020  11.267   5.210  10.385 -0.0335  0.1421  0.0387
16917PP      PP27021   4.378  12.806   3.654 -0.3302 -0.3922 -0.0731
16918PP      PP27022   8.122   7.303   0.301 -0.3083 -0.0531 -0.1863
16919PP      PP27023  12.669  14.335   9.069 -0.0932 -0.0936 -0.0518
16920PP      PP27024   0.904  10.604  11.205  0.1705 -0.1182 -0.1550
16921PP      PP27025  11.172   6.538  10.806 -0.0510 -0.1414  0.2704
16922PP      PP27026   6.589   1.622   1.048 -0.2021  0.2117  0.0050
16923PP      PP27027   3.766   1.334  11.453  0.4379  0.0668 -0.0658
16924PP      PP27028  13.483  10.479   1.340 -0.0511 -0.0747 -0.0184
16925PP      PP27029   4.482   5.146   3.333  0.0072  0.0086 -0.1389
16926PP      PP27030   0.598   5.875  11.443  0.3116 -0.4126 -0.0197
16927PP      PP27031   2.496   3.375   3.387 -0.0180  0.1858  0.0642
16928PP      PP27032   9.138   1.558  13.036  0.1885 -0.0644  0.1208
16929PP      PP27033   2.326   5.163   4.426  0.0738 -0.3186 -0.2035
16930PP      PP27034   1.332   8.267   3.345 -0.3609 -0.0030 -0.2860
16931PP      PP27035  13.966   0.255  12.423  0.0222 -0.0763  0.0756
16932PP      PP27036   7.084   5.336   0.562 -0.2666 -0.3126  0.2719
16933PP      PP27037   3.116   6.587   0.570 -0.0179  0.0171 -0.1784
16934PP      PP27038   7.267   7.617   0.480  0.0194 -0.1869  0.3191
16935PP      PP27039  13.017   7.042   2.489 -0.0767 -0.2676  0.0340
16936PP      PP27040   7.256   8.892  12.281 -0.2052  0.0725  0.0453
16937PP      PP27041  12.350   7.017  13.128 -0.3323 -0.1187  0.3446
16938PP      PP27042   2.272  10.794  11.181  0.0999  0.1520  0.1135
16939PP      PP27043   4.315  12.112   9.737 -0.0063 -0.1415 -0.0888
16940PP      PP27044   0.024  12.113  12.742  0.1629 -0.1512  0.1795
16941PP      PP27045   8.675  10.766   2.889 -0.1377 -0.1585 -0.1756
16942PP      PP27046   0.905  12.624   4.104  0.1903  0.0397 -0.0471
16943PP      PP27047  15.383   9.053   0.508  0.3732  0.0878  0.1486
16944PP      PP27048   5.795  14.448  10.387  0.1064  0.0969 -0.0911
16945PP      PP27049  11.352   8.726  10.167  0.1105 -0.2129  0.3899
16946PP      PP27050   6.419   1.494  12.454 -0.1106 -0.1809 -0.0728
16947PP      PP27051  10.042   3.863   0.747 -0.0171 -0.0876  0.1678
16948PP      PP27052  13.288  10.541   9.790  0.2187 -0.3489 -0.1990
16949PP      PP27053  10.975   1.370   9.673  0.0227  0.0691 -0.3073
16950PP      PP27054   9.501   9.161   0.555  0.3141 -0.1285  0.0400
16951PP      PP27055   2.063  14.650   9.290 -0.1011  0.0760  0.1001
16952PP      PP27056   8.032   4.963   9.382 -0.0584  0.1622  0.2455
16953PP      PP27057   9.066   3.386  11.816 -0.0555 -0.0015  0.0741
16954PP      PP27058   5.384   4.808   2.316 -0.1830 -0.0768  0.0277
16955PP      PP27059   9.331  13.455  10.773 -0.0640 -0.0532  0.0317
16956PP      PP27060   4.610  11.161  12.926 -0.0672 -0.2327  0.0236
16957PP      PP27061   5.077   3.201  10.269  0.1851 -0.1142 -0.2283
16958PP      PP27062  13.998  12.733  10.460 -0.1512  0.0164  0.3004
16959PP      PP27063   2.075  13.087   2.566  0.2049  0.1231 -0.1549
16960PP      PP27064  14.903   7.044  11.004  0.0113 -0.1921 -0.1815
16961PP      PP27065   4.499   0.519  13.142  0.0402 -0.0198  0.1103
16962PP      PP27066   7.283   2.920   2.028 -0.0400  0.0493 -0.1266
16963PP      PP27067   9.464   7.577   8.945 -0.0603 -0.1335 -0.0040
16964PP      PP27068  13.234  11.706   9.716  0.1556  0.0053  0.1206
16965PP      PP27069   5.187   8.518   5.464 -0.1776  0.1469  0.0287
16966PP      PP27070   3.048   7.615  12.150 -0.3329 -0.2384 -0.2680
16967PP      PP27071   0.414   3.467   0.087  0.1910 -0.0302 -0.1137
16968PP      PP27072   6.404  13.177  10.353  0.1694  0.1142  0.1226
16969PP      PP27073   1.242  15.707  12.821 -0.2656 -0.1512  0.1618
16970PP      PP27074  12.969   2.791   9.882  0.1359  0.1159 -0.0898
16971PP      PP27075  12.494  10.854   4.229  0.3066 -0.2835  0.0934
16972PP      PP27076   2.714   9.468   4.584  0.1021 -0.0956 -0.0545
16973PP      PP27077   5.598  15.184   9.056 -0.1076  0.1204 -0.0692
16974PP      PP27078   3.292   8.279  12.377  0.1476 -0.0726  0.0092
16975PP      PP27079   8.821   9.557   2.337 -0.1033  0.2982  0.1130
16976PP      PP27080   2.008  11.753  12.960 -0.1190 -0.0266  0.2865
16977PP      PP27081  13.173  10.890   9.476 -0.0441  0.0890 -0.3453
16978PP      PP27082   3.415  13.665   0.665 -0.0102 -0.2128  0.1885
16979PP      PP27083   5.563   0.421  12.277  0.0100  0.1327  0.0016
16980PP      PP27084   7.076   9.448   2.144 -0.1378 -0.0635  0.0807
16981PP      PP27085   0.685   3.020   1.768 -0.2356 -0.2588  0.1667
16982PP      PP27086   0.076   6.102   4.780  0.0484  0.0607  0.1638
16983PP      PP27087  10.254  15.263  13.004  0.2036  0.1956  0.0497
16984PP      PP27088  13.126  12.355   3.092 -0.0989  0.0770 -0.0963
16985PP      PP27089  12.097   1.479   1.103 -0.1215 -0.2254 -0.1291
16986PP      PP27090   7.410  14.790  10.518 -0.3272 -0.1754  0.2347
16987PP      PP27091  15.137   1.800   2.214  0.1459 -0.2221 -0.1155
16988PP      PP27092  10.860   2.705   3.662  0.0585 -0.0215  0.4790
16989PP      PP27093   1.729   4.129   0.695  0.0554 -0.0501  0.0810
16990PP      PP27094   9.415   7.318  11.371 -0.0340  0.1949  0.1703
16991PP      PP27095   5.422   3.339   8.976  0.0123 -0.2291  0.0580
16992PP      PP27096   6.201  13.828   3.139  0.0139 -0.0943 -0.1222
16993PP      PP27097  10.422   5.973   2.606  0.3314  0.1757  0.3379
16994PP      PP27098   3.633   3.458   8.608  0.0716 -0.2341  0.1734
16995PP      PP27099  15.489   0.497   4.096 -0.1562  0.1263  0.1212
16996PP      PP27100   6.352  10.642  11.678  0.0666  0.3409 -0.0340
16997PP      PP27101   8.092   9.275   2.367  0.0647 -0.2299 -0.1430
16998PP      PP27102  12.466   3.480  12.378  0.1205  0.0347 -0.0481
16999PP      PP27103  15.751  10.322   9.439 -0.0642 -0.0395  0.2181
17000PP      PP27104   3.506  12.768   0.876  0.0896 -0.2114 -0.0665
17001PP      PP27105   4.976  11.330   3.220 -0.2612 -0.1700 -0.2274
17002PP      PP27106  12.584   0.723   9.768  0.0137 -0.0670 -0.3288
17003PP      PP27107   8.523  15.737  10.775 -0.2208 -0.4219  0.0483
17004PP      PP27108   5.984  12.569   8.950 -0.2095  0.1726 -0.1354
17005PP      PP27109  13.918  15.537   9.174  0.1072  0.5506 -0.2808
17006PP      PP27110   1.796  13.656  10.874 -0.0347 -0.1521 -0.1590
17007PP      PP27111  14.644   8.983   3.272 -0.3329 -0.0190 -0.4136
17008PP      PP27112   5.170  14.108   9.156 -0.3175  0.1758  0.0005
17009PP      PP27113  13.357   4.282   4.504  0.0520  0.2313 -0.0495
17010PP      PP27114   0.496  13.238  11.518  0.1333  0.2392  0.2229
17011PP      PP27115   1.435   0.478   2.023 -0.0244  0.0195 -0.0508
17012PP      PP27116   5.078   2.637  12.956 -0.0112  0.0909  0.0913
17013PP      PP27117   4.456   6.125   3.967 -0.1521  0.0624 -0.0866
17014PP      PP27118  11.255   1.088   9.363  0.1446  0.2350 -0.0527
17015PP      PP27119   7.436   0.341  12.583 -0.0159  0.1869  0.1564
17016PP      PP27120   6.766   1.050  10.418  0.3265  0.1385  0.3299
17017PP      PP27121   4.243   4.210  11.833 -0.1305 -0.2331 -0.0493
17018PP      PP27122   5.615   3.105   2.188 -0.1243  0.1021 -0.2032
17019PP      PP27123  14.008   8.001   4.437 -0.2889  0.1277 -0.1701
17020PP      PP27124  15.436   1.480  13.386  0.1670 -0.2379  0.0394
17021PP      PP27125   0.070  14.912   3.088 -0.0525 -0.2447 -0.1347
17022PP      PP27126   4.943   3.323   0.176 -0.5077 -0.0658 -0.1298
17023PP      PP27127   1.892   8.604   2.447 -0.1521 -0.0538  0.4520
17024PP      PP27128   2.984   2.365   3.558 -0.2211 -0.4861 -0.1035
17025PP      PP27129   0.721  14.993   1.033 -0.0918  0.0893  0.1390
17026PP      PP27130  15.767   9.962   0.369  0.0572  0.1808 -0.1501
17027PP      PP27131   6.017  15.741  11.571  0.2152 -0.1630  0.0176
17028PP      PP27132   0.065   0.147   4.355  0.1562 -0.2776 -0.1433
17029PP      PP27133   5.709  10.908   1.675  0.1044 -0.0497  0.0155
17030PP      PP27134   0.183  11.910   9.441 -0.2519  0.0925  0.3252
17031PP      PP27135  10.414   9.856  13.095  0.0348 -0.0397  0.0571
17032PP      PP27136  14.183   9.970  10.228  0.0082  0.3624  0.0789
17033PP      PP27137  12.646   8.106  12.124  0.0084 -0.2347 -0.1070
17034PP      PP27138  15.200   7.414  12.661  0.2123  0.1285  0.4217
17035PP      PP27139   2.032   0.774   0.990  0.2262 -0.0547  0.0695
17036PP      PP27140  14.553   7.739   3.044 -0.0352  0.0774 -0.0947
17037PP      PP27141   7.737  10.766   1.709 -0.0862 -0.0288 -0.0956
17038PP      PP27142  10.295   6.176   1.844 -0.0540  0.0973  0.0513
17039PP      PP27143  12.876   1.806   1.451  0.0369 -0.4972 -0.1709
17040PP      PP27144  11.279   5.873   1.613 -0.3828 -0.1201  0.0607
17041PP      PP27145   5.552   3.477   2.575 -0.0827  0.0103 -0.0351
17042PP      PP27146  10.788   8.568  11.251  0.1097 -0.0988 -0.1388
17043PP      PP27147   4.451   3.228   0.289  0.1737  0.2449 -0.1092
17044PP      PP27148   9.553  10.748  13.207  0.3935 -0.0482 -0.2904
17045PP      PP27149  14.819   7.385  10.169  0.2577  0.1506  0.1050
17046PP      PP27150  10.855  12.097   1.938 -0.2217  0.0943  0.3776
17047PP      PP27151  13.868   3.039  13.154  0.1488  0.1353 -0.1927
17048PP      PP27152  13.125   5.536   2.539 -0.1925  0.0181 -0.5444
17049PP      PP27153   6.618   4.728   3.186  0.2498  0.1546  0.2073
17050PP      PP27154   2.095   1.439   1.082  0.0656 -0.3343  0.0178
17051PP      PP27155  15.363   1.056   2.929  0.1177 -0.2133 -0.3011
17052PP      PP27156   8.548  10.716  12.191  0.3105 -0.0694 -0.0528
17053PP      PP27157   8.894   1.295   2.783  0.0982  0.1014 -0.1138
17054PP      PP27158   5.493  13.098   3.357 -0.1823  0.3648  0.0203
17055PP      PP27159   5.545  13.477  12.706  0.0372 -0.3204  0.1643
17056PP      PP27160  10.587   6.196  12.816  0.0532  0.4785 -0.3041
17057PP      PP27161  10.478   3.730   0.161 -0.5029 -0.2013 -0.0192
17058PP      PP27162   3.253  12.785   1.376 -0.2732 -0.2088 -0.0908
17059PP      PP27163   9.004  12.557  12.133 -0.1729 -0.1412 -0.1692
17060PP      PP27164  14.485   2.603   1.846 -0.0074  0.0740  0.0465
17061PP      PP27165   3.733  15.152  12.460  0.2290 -0.2117  0.0807
17062PP      PP27166   5.211  13.453  10.496  0.0503 -0.0916  0.0916
17063PP      PP27167   1.990   4.963   4.092 -0.3075  0.1659  0.2068
17064PP      PP27168   5.397   4.334   3.963  0.0766 -0.1042  0.2396
17065PP      PP27169   6.069  10.145  13.120 -0.2041 -0.0050  0.2454
17066PP      PP27170   4.663  10.280   2.227 -0.0492 -0.1381 -0.1366
17067PP      PP27171  12.654   1.761  12.729 -0.4330 -0.0761 -0.2041
17068PP      PP27172   8.350  12.223  11.330  0.1192 -0.0568  0.0266
17069PP      PP27173  10.473  12.600   2.619  0.0134 -0.3297  0.0124
17070PP      PP27174   1.603   9.983  10.821 -0.1291 -0.0058  0.2921
17071PP      PP27175   0.826   0.894   0.712  0.1149  0.1542  0.0620
17072PP      PP27176  10.393   0.853   3.633  0.0356 -0.2633  0.2801
17073PP      PP27177   0.401  13.733   1.138  0.0952 -0.3408 -0.2119
17074PP      PP27178  14.838  11.716  11.970 -0.2126 -0.0130 -0.2012
17075PP      PP27179   2.274  12.202   3.024 -0.3674  0.1517 -0.1236
17076PP      PP27180   0.715   4.117  11.381 -0.1653 -0.1858 -0.4137
17077PP      PP27181   2.766   5.331   5.172  0.1647 -0.0869  0.2535
17078PP      PP27182   2.695   7.919   5.120  0.1316 -0.0507  0.0199
17079PP      PP27183   4.502  11.426   3.250  0.3269  0.4345 -0.1542
17080PP      PP27184   7.779   1.666   9.082  0.0562 -0.1987 -0.1884
17081PP      PP27185   1.763   0.577  13.320  0.1372 -0.1567  0.0567
17082PP      PP27186   0.528   4.505  10.401 -0.0803 -0.1114 -0.1111
17083PP      PP27187   8.070   9.351   8.996 -0.2413  0.1772  0.1512
17084PP      PP27188   2.461   9.072  11.096  0.1725 -0.1798 -0.1037
17085PP      PP27189  12.063  10.156   8.729 -0.2811 -0.0265  0.0106
17086PP      PP27190  14.604   2.460   9.753 -0.3880 -0.4763 -0.0450
17087PP      PP27191   4.298   3.871  11.006  0.1401 -0.0486  0.0607
17088PP      PP27192   2.630  12.007   2.113 -0.1159  0.0231 -0.0820
17089PP      PP27193   6.343   6.226  11.773  0.0126 -0.2479  0.0799
17090PP      PP27194  14.271   5.865   9.123 -0.0423  0.1326  0.1558
17091PP      PP27195   3.151   6.573   4.080 -0.1520 -0.2376  0.0166
17092PP      PP27196   4.367   0.398   3.489  0.0561  0.0121 -0.0639
17093PP      PP27197  10.615   4.335   8.991 -0.0598  0.0048  0.1077
17094PP      PP27198  10.193  15.004  11.386 -0.0151 -0.2850 -0.0718
17095PP      PP27199   1.379  13.898   9.270  0.1610 -0.2387  0.1461
17096PP      PP27200   8.534   1.858   1.068  0.0223 -0.1452 -0.4744
17097PP      PP27201   5.380   5.351   2.292 -0.1436 -0.0554  0.0719
17098PP      PP27202  14.345  11.735  11.185  0.0708  0.0108 -0.0542
17099PP      PP27203   5.043   4.288   2.947 -0.0539  0.0401 -0.2610
17100PP      PP27204   6.692   3.527   0.869 -0.1973 -0.0213 -0.2124
17101PP      PP27205  10.120   2.971   0.664 -0.1232  0.0816  0.1784
17102PP      PP27206   6.543   9.517   9.445  0.1026 -0.2020  0.3490
17103PP      PP27207   8.736   6.181  10.411 -0.1154 -0.2338 -0.2012
17104PP      PP27208   5.424  10.930   2.677  0.3921 -0.0075  0.0696
17105PP      PP27209   0.435  11.579  11.030  0.0123 -0.0553  0.1676
17106PP      PP27210  12.275   6.585  13.348  0.0007  0.1276 -0.3266
17107PP      PP27211  11.027   6.611  12.761  0.0124  0.0168 -0.0843
17108PP      PP27212   5.706   2.857   9.420 -0.0685 -0.0926 -0.1348
17109PP      PP27213  10.605   1.107   0.299  0.0609  0.0996 -0.0442
17110PP      PP27214   5.499   8.574  12.788  0.3348  0.0224  0.0802
17111PP      PP27215   1.315  14.483  10.578  0.0605  0.2696  0.1452
17112PP      PP27216   0.832   8.704  11.202  0.0116  0.0585  0.1164
17113PP      PP27217   9.796  14.380  10.871 -0.0560  0.4736  0.0916
17114PP      PP27218  11.974  11.710  13.209  0.1340 -0.1679 -0.2638
17115PP      PP27219   6.438   1.589   2.207  0.1189  0.0360 -0.0128
17116PP      PP27220   9.125  12.457   0.668  0.0910  0.1037 -0.1136
17117PP      PP27221   5.947   4.578   9.346  0.0697 -0.1866  0.0746
17118PP      PP27222   4.137  15.615   3.442  0.1415 -0.0974 -0.2950
17119PP      PP27223  14.668  12.966   0.389 -0.3096 -0.0483 -0.1102
17120PP      PP27224   0.170   0.070  10.038  0.1763 -0.1224 -0.1434
17121PP      PP27225   6.764   1.454   0.021  0.1555  0.0369  0.2637
17122PP      PP27226  10.678   0.781  12.927  0.0738 -0.1083 -0.1490
17123PP      PP27227   6.109   9.423   0.337 -0.1624  0.0552  0.0819
17124PP      PP27228  11.017  12.936   3.551  0.4938 -0.0026 -0.0210
17125PP      PP27229   5.345   9.028  12.619 -0.0461  0.0113 -0.0011
17126PP      PP27230  10.282   6.529  13.156 -0.0694  0.1913  0.4267
17127PP      PP27231  11.139   4.427   0.136 -0.1369 -0.1344  0.0413
17128PP      PP27232  10.137  11.253  12.523 -0.1818  0.1410 -0.0600
17129PP      PP27233  12.758   7.533   8.956 -0.0605 -0.0404 -0.2009
17130PP      PP27234   5.554  14.513   3.986  0.1070 -0.0916 -0.0952
17131PP      PP27235   8.801   5.875   3.209 -0.2008  0.0144  0.0294
17132PP      PP27236  10.484   4.507   1.358  0.1550  0.0603  0.2051
17133PP      PP27237  12.841  10.384  11.190 -0.0729 -0.0618 -0.0402
17134PP      PP27238   1.197  15.713   3.540 -0.1465 -0.2558  0.0535
17135PP      PP27239  10.667   5.595   4.150  0.1819 -0.1357  0.0200
17136PP      PP27240   0.237  11.210   2.514  0.0404  0.0876  0.2124
17137PP      PP27241   4.537   1.513   2.427  0.1120  0.1135 -0.0505
17138PP      PP27242   2.913   3.562  10.190 -0.1450  0.0066  0.0274
17139PP      PP27243  12.365   7.523   4.058  0.0239 -0.2547  0.0708
17140PP      PP27244  15.554   4.875   3.421 -0.0109 -0.2425  0.1261
17141PP      PP27245  12.753   5.639   4.784  0.0271 -0.1053  0.3569
17142PP      PP27246  10.886   5.744  10.739  0.0686 -0.1597 -0.1617
17143PP      PP27247   2.857   1.936   1.804  0.1212  0.0625  0.2041
17144PP      PP27248  13.251   5.889   1.206 -0.1856 -0.0328  0.1350
17145PP      PP27249  10.412  12.393   8.107 -0.0465 -0.2216  0.1887
17146PP      PP27250  13.416  13.934   0.347  0.2899 -0.1027 -0.0619
17147PP      PP27251  15.892   0.360   2.419 -0.1744 -0.0110  0.1783
17148PP      PP27252   9.927   9.863   0.934 -0.0104 -0.1124  0.3024
17149PP      PP27253   5.870  10.132   1.246  0.0166  0.0323 -0.2446
17150PP      PP27254   2.605  12.876   3.230  0.1723  0.1762 -0.2274
17151PP      PP27255   6.971   6.028   3.591  0.1858  0.1505  0.2191
17152PP      PP27256   6.262   3.714   8.944 -0.2988  0.1580 -0.0927
17153PP      PP27257  10.402  10.355   3.819 -0.0660 -0.4561 -0.2331
17154PP      PP27258  14.741   6.692  10.683  0.1307  0.1199 -0.4601
17155PP      PP27259   5.291  11.979  10.045  0.3081  0.1398 -0.1972
17156PP      PP27260   7.082   3.466   2.582 -0.1228  0.0485 -0.2158
17157PP      PP27261   0.152  14.731   2.615 -0.1512  0.2708  0.0255
17158PP      PP27262   3.263  11.868   1.365  0.2086 -0.2050 -0.3249
17159PP      PP27263   2.188   4.157   9.861 -0.1756  0.0781  0.2905
17160PP      PP27264   1.784   3.741  10.119  0.1744 -0.1151  0.0946
17161PP      PP27265  15.427   6.595   3.709 -0.1899 -0.1353  0.0008
17162PP      PP27266  13.312   9.769   0.950  0.1401  0.2131 -0.0270
17163PP      PP27267   2.575  15.025   1.444  0.0004 -0.3688  0.1615
17164PP      PP27268  14.716   9.125  10.087 -0.1434  0.0603 -0.0714
17165PP      PP27269  14.057   4.001   2.395 -0.0397  0.1424 -0.3927
17166PP      PP27270   5.012   8.428  10.700 -0.0618  0.1846  0.0933
17167PP      PP27271  14.064  15.194   1.999  0.0880  0.0610  0.0387
17168PP      PP27272   1.476   4.559  10.531  0.0108  0.2017 -0.1048
17169PP      PP27273   0.842  10.569   2.375  0.0335  0.2615  0.2572
17170PP      PP27274   3.408  13.087   4.084  0.3034  0.0410  0.0592
17171PP      PP27275  11.922  12.826   1.596  0.2496  0.2504 -0.2217
17172PP      PP27276   4.561   9.099   4.860  0.1111 -0.4413  0.0853
17173PP      PP27277  12.837   7.073  11.887 -0.2146  0.0158 -0.1994
17174PP      PP27278  12.455   4.530   0.353  0.2366 -0.2618  0.0727
17175PP      PP27279   0.697  14.130   8.793  0.0726 -0.1779 -0.0239
17176PP      PP27280   8.858   4.272   1.066  0.3372 -0.4420 -0.1432
17177PP      PP27281   2.188  11.281  10.175 -0.0315 -0.1346 -0.0084
17178PP      PP27282  14.109   9.831   3.649 -0.0347 -0.1198  0.2195
17179PP      PP27283   7.459  15.294  11.842  0.2178  0.0327  0.1269
17180PP      PP27284   1.643  10.769   8.935  0.1238 -0.1733  0.0954
17181PP      PP27285   3.267  13.356   1.616  0.2294 -0.3129 -0.1687
17182PP      PP27286  15.042   9.024   2.576  0.2121 -0.2072  0.0563
17183PP      PP27287  10.971  15.497  11.131 -0.0732 -0.0924 -0.1968
17184PP      PP27288  10.454  14.752   2.500 -0.2027  0.2042  0.0403
17185PP      PP27289   7.627   6.246  10.580  0.0812  0.1374 -0.0359
17186PP      PP27290   5.279  12.114   9.521 -0.0425  0.0074  0.3415
17187PP      PP27291   1.466   8.240   9.585 -0.0593  0.1434  0.2600
17188PP      PP27292  13.218  14.169  11.781 -0.0388  0.3208 -0.1742
17189PP      PP27293  12.704   3.916   3.211  0.3174 -0.1026  0.4967
17190PP      PP27294   9.044   3.122   0.343 -0.0330 -0.2571 -0.0113
17191PP      PP27295  14.251   6.803   1.661  0.0099 -0.3286 -0.0815
17192PP      PP27296   7.711   6.662  11.089 -0.1164  0.0894 -0.2692
17193PP      PP27297   9.089   7.956  13.045 -0.0746  0.3927  0.4653
17194PP      PP27298  13.654  13.094  12.919  0.0922  0.0852 -0.0779
17195PP      PP27299   4.270  10.781  11.951 -0.2852  0.0378 -0.1646
17196PP      PP27300   4.977  14.160   3.037 -0.0927  0.0402  0.1027
17197PP      PP27301  14.426   6.546  12.179  0.1651  0.0668 -0.2029
17198PP      PP27302   2.662   5.008   1.155 -0.2659  0.1222 -0.0100
17199PP      PP27303  13.073   7.531   4.122  0.2675  0.0561  0.1290
17200PP      PP27304   7.194   8.341  11.050  0.0425 -0.1273  0.0392
17201PP      PP27305   1.131   4.897  11.127  0.4803  0.2076 -0.0170
17202PP      PP27306  12.864   8.817   2.087 -0.0697  0.0918  0.1335
17203PP      PP27307   0.518   5.022   0.612 -0.1814  0.1458  0.0361
17204PP      PP27308  11.565   3.340  10.344 -0.4366 -0.3204  0.1440
17205PP      PP27309  13.782  13.724   2.716 -0.0757  0.1837  0.2171
17206PP      PP27310   1.747  10.216  11.705  0.1701  0.3185  0.1844
17207PP      PP27311   7.488   9.217   2.804 -0.0306  0.3798 -0.0561
17208PP      PP27312   2.276   7.202  12.854 -0.0799 -0.0954  0.1458
17209PP      PP27313   8.618  11.541   5.373 -0.0468 -0.1559 -0.0673
17210PP      PP27314  10.060  10.776  12.327  0.2994  0.4147  0.2622
17211PP      PP27315   0.604  11.466   3.495 -0.2071  0.1353  0.2247
17212PP      PP27316  13.406   0.418   0.579 -0.0996 -0.0986 -0.0921
17213PP      PP27317  15.863  13.105   0.676 -0.2539  0.1397 -0.0714
17214PP      PP27318  12.989   8.442  12.319  0.2253  0.1156 -0.0525
17215PP      PP27319   8.050   7.586   1.072 -0.1799  0.1009  0.0838
17216PP      PP27320  13.324  12.815   0.238 -0.2466 -0.1094 -0.0376
17217PP      PP27321   3.999  11.207  11.072  0.1508 -0.0346 -0.0971
17218PP      PP27322   1.363  10.192  10.456 -0.0588 -0.0393 -0.3327
17219PP      PP27323   7.472   0.837   8.717  0.3163 -0.1281 -0.1883
17220PP      PP27324   1.520   6.144  12.559  0.0428 -0.1207  0.0966
17221PP      PP27325   7.559   5.121   8.450 -0.0790 -0.3928  0.0957
17222PP      PP27326   1.712   5.573   9.866 -0.1957 -0.0592 -0.3361
17223PP      PP27327  15.018   9.640   9.050  0.0509 -0.1542 -0.1680
17224PP      PP27328   0.952   3.862  12.916  0.1330 -0.0975 -0.2658
17225PP      PP27329   2.040   3.284  10.211  0.3601 -0.2344 -0.1500
17226PP      PP27330  12.020  13.631   9.551 -0.0927  0.1228  0.0520
17227PP      PP27331   6.073   0.904   3.705 -0.0271  0.1763 -0.0803
17228PP      PP27332   7.792   7.508   0.651 -0.2843  0.0665  0.1194
17229PP      PP27333   5.404   5.302   4.095 -0.0743  0.4119  0.2104
17230PP      PP27334   2.886   1.365  10.232 -0.0449 -0.1340 -0.3125
17231PP      PP27335  15.188   9.015  11.320 -0.0832 -0.4649 -0.1604
17232PP      PP27336   9.575   8.182  12.136  0.1072  0.1817  0.1331
17233PP      PP27337   4.012   4.079  11.425 -0.2486  0.3264  0.1532
17234PP      PP27338  10.831   1.904   0.520  0.1288 -0.0219 -0.0678
17235PP      PP27339   9.873   3.798   1.934 -0.2804 -0.0808  0.1193
17236PP      PP27340   7.997  14.604  10.354 -0.0405  0.0144 -0.0694
17237PP      PP27341  12.743   9.039   3.430  0.2089 -0.0972 -0.0419
17238PP      PP27342  14.546   8.548   3.019  0.1365  0.1274  0.5484
17239PP      PP27343  13.479   1.056   9.328 -0.0086  0.2421  0.0925
17240PP      PP27344  13.737   3.349   3.872 -0.1265 -0.4609 -0.0518
17241PP      PP27345  12.697   7.820   0.503  0.0268 -0.0544  0.0126
17242PP      PP27346   1.564  14.976  12.111  0.2363 -0.0179 -0.0796
17243PP      PP27347  15.543   2.885   1.328  0.0913  0.1884  0.3276
17244PP      PP27348  14.274   3.553   3.242 -0.0539 -0.3071  0.0518
17245PP      PP27349   2.455   7.232   4.417 -0.0153 -0.0218  0.1501
17246PP      PP27350   1.138   3.861  11.323  0.0337  0.1275 -0.1266
17247PP      PP27351  12.175  14.738  11.072 -0.1119  0.0338 -0.1166
17248PP      PP27352   3.151  15.645  12.300 -0.0012  0.3464  0.2138
17249PP      PP27353   7.939  11.464   9.177  0.1470 -0.0058 -0.0754
17250PP      PP27354  13.124   6.691  10.037 -0.1566  0.0972 -0.0961
17251PP      PP27355  10.560  15.405   9.443  0.0219 -0.1454 -0.0103
17252PP      PP27356   2.677  15.561   9.729 -0.1190 -0.3635 -0.0574
17253PP      PP27357   7.745   0.161   1.701  0.3897  0.0031  0.3909
17254PP      PP27358   2.313  10.677   3.747  0.2666 -0.0509  0.2934
17255PP      PP27359  11.197   1.453   2.625 -0.0291  0.2972  0.0571
17256PP      PP27360  14.230  13.795   2.238  0.0431 -0.1621 -0.0473
17257PP      PP27361  12.794  10.773   9.102  0.0567  0.0250 -0.1642
17258PP      PP27362   8.402   8.592  11.720 -0.2305 -0.2799 -0.0702
17259PP      PP27363   2.935   1.736   9.798  0.0260 -0.1666 -0.3086
17260PP      PP27364   2.752  10.066  13.284  0.1630 -0.3353 -0.1340
17261PP      PP27365  11.048   1.085   4.289  0.3145  0.0380  0.3245
17262PP      PP27366   5.214   4.143  12.566  0.2108 -0.4530 -0.1732
17263PP      PP27367   1.585  10.153   2.622 -0.3048 -0.2070  0.1119
17264PP      PP27368  13.645   3.288   0.544 -0.1131 -0.1403  0.0871
17265PP      PP27369   4.635   4.727   4.567 -0.1055  0.1221  0.1856
17266PP      PP27370   5.158   2.636   9.342  0.0571  0.0644 -0.1054
17267PP      PP27371   0.422   5.064   3.183  0.1126 -0.0910  0.0738
17268PP      PP27372   8.338   1.401  10.038  0.1422 -0.2399  0.0533
17269PP      PP27373  12.624   2.730   0.977 -0.0232  0.0268  0.0544
17270PP      PP27374   7.299   4.369  11.966  0.0572 -0.1404 -0.0094
17271PP      PP27375   7.561  15.360   9.478 -0.0701  0.2106 -0.3895
17272PP      PP27376   7.748   4.188   2.359 -0.2414 -0.0517  0.2953
17273PP      PP27377  12.269   7.746  10.587  0.1079  0.0312 -0.0571
17274PP      PP27378   3.279   3.272   1.275  0.2729 -0.0688 -0.0326
17275PP      PP27379   0.874   6.311  11.241  0.0206  0.3697  0.1429
17276PP      PP27380  12.500   4.432   3.483 -0.3568  0.2381 -0.0020
17277PP      PP27381  10.005   8.825  11.565  0.2708  0.0578 -0.1320
17278PP      PP27382  15.775   6.556  11.625 -0.0388  0.0530 -0.2571
17279PP      PP27383   5.258  14.732   2.679 -0.2736 -0.2496 -0.2186
17280PP      PP27384   1.478  10.208  10.002 -0.0978 -0.0351 -0.2671
17281PP      PP27385  13.566   8.601   9.622 -0.3029  0.1285  0.1360
17282PP      PP27386  15.461   4.979  11.119 -0.2822 -0.3881 -0.2083
17283PP      PP27387  13.044   4.075   0.751 -0.2593 -0.0389 -0.3781
17284PP      PP27388   9.379   6.826   0.151  0.0311  0.0796  0.1817
17285PP      PP27389  12.048   5.878  10.443 -0.0312  0.2598  0.0521
17286PP      PP27390   6.249   5.714  11.381  0.1053  0.2617  0.1512
17287PP      PP27391   5.492  10.225   3.930  0.0128 -0.0594  0.1042
17288PP      PP27392  14.689  12.622   2.459 -0.0980  0.3472 -0.0524
17289PP      PP27393  10.673   8.772   2.045 -0.0491 -0.1127  0.1872
17290PP      PP27394   5.487  15.235  13.144  0.1458 -0.1109 -0.0468
17291PP      PP27395   7.182  13.983   9.180 -0.0887  0.0817 -0.0824
17292PP      PP27396  12.319   6.994  11.234 -0.0383 -0.0212 -0.1391
17293PP      PP27397   6.886   1.514   9.469 -0.1574  0.0122  0.0362
17294PP      PP27398  13.079   7.952  10.012 -0.0989  0.1126 -0.0131
17295PP      PP27399   6.865   1.427  10.013 -0.0791 -0.1517 -0.0380
17296PP      PP27400   1.003  10.427  10.066  0.2435 -0.1134 -0.1463
17297PP      PP27401  11.151   6.819   1.582 -0.0123 -0.3559 -0.0824
17298PP      PP27402  12.708   7.708  13.316  0.2236 -0.2197 -0.0089
17299PP      PP27403   1.998   8.336   4.619 -0.0850 -0.0721  0.5101
17300PP      PP27404  13.719   2.118   9.429  0.2374  0.1998  0.1720
17301PP      PP27405   5.259  12.964   1.781 -0.1277 -0.0334 -0.1002
17302PP      PP27406  13.900   0.661  11.116 -0.2618 -0.0768  0.0051
17303PP      PP27407   4.221   0.625  12.696 -0.2406 -0.3470 -0.2166
17304PP      PP27408   8.601   5.978   0.528 -0.6850  0.5288  0.0855
17305PP      PP27409   2.704   1.090   2.606  0.3683 -0.1819  0.2651
17306PP      PP27410  15.507   6.023   0.494 -0.3266 -0.4139 -0.1764
17307PP      PP27411   2.211   4.728   3.134  0.4897 -0.0835 -0.1668
17308PP      PP27412   3.137  10.568   3.080 -0.1875  0.1626 -0.0165
17309PP      PP27413  14.930   0.214   3.334  0.4117  0.0773  0.1243
17310PP      PP27414  14.168  11.846   0.002 -0.1433  0.3512  0.2913
17311PP      PP27415   2.203   9.948   3.262 -0.0023  0.0927  0.2187
17312PP      PP27416  14.382  15.862   0.349 -0.1238  0.1630  0.2317
17313PP      PP27417   5.600   4.174   1.489  0.4509  0.2283 -0.3394
17314PP      PP27418   9.104  12.967   2.842  0.0662 -0.4876 -0.0241
17315PP      PP27419   8.763   6.473   3.150  0.0564 -0.1271 -0.3287
17316PP      PP27420   6.241   2.693   9.077  0.0594  0.0881  0.0053
17317PP      PP27421   9.254  13.635   3.907 -0.0593 -0.2146  0.1143
17318PP      PP27422   8.207  10.412  12.954 -0.1251 -0.3514 -0.0749
17319PP      PP27423   7.766   0.228   8.928  0.1166  0.1549 -0.0428
17320PP      PP27424  13.907   8.839  10.061 -0.0640 -0.2300  0.1581
17321PP      PP27425  14.774   1.572   0.766  0.2176  0.0388  0.0258
17322PP      PP27426  15.367   8.383   1.870 -0.0366 -0.2473  0.2641
17323PP      PP27427  13.577   2.634  11.725 -0.1637  0.0278 -0.0076
17324PP      PP27428   5.941  14.057  13.338  0.1391 -0.2180 -0.5465
17325PP      PP27429  11.156   3.783  10.914 -0.0082  0.1142 -0.0275
17326PP      PP27430  13.190   7.855   1.213  0.6062 -0.0709  0.0891
17327PP      PP27431   9.928   0.144   9.227 -0.1357  0.0292  0.0638
17328PP      PP27432  10.856  11.575  11.230  0.0093  0.1768  0.0133
17329PP      PP27433   6.387   3.802   8.457 -0.1126 -0.2138 -0.2039
17330PP      PP27434  14.684   5.478  11.465  0.0391  0.1748  0.1466
17331PP      PP27435   9.659   5.906   1.770 -0.1334  0.0650  0.1991
17332PP      PP27436   6.985   3.187  11.014  0.1811 -0.0714  0.0344
17333PP      PP27437   5.133   5.561   3.294  0.1179 -0.0610  0.0921
17334PP      PP27438  13.915  12.850   1.429  0.3143  0.1428 -0.1878
17335PP      PP27439   9.701   0.763  11.531  0.1093  0.0579 -0.0928
17336PP      PP27440   6.789  15.294  12.621 -0.1536  0.1055 -0.0478
17337PP      PP27441   0.385   4.520   4.589 -0.2654  0.1398 -0.4155
17338PP      PP27442  11.296   2.951  10.152  0.3081  0.2018  0.3136
17339PP      PP27443  13.734  14.258  11.634  0.0037  0.0447  0.0808
17340PP      PP27444   0.087   4.817  10.963  0.3055  0.0587  0.0548
17341PP      PP27445   0.803   6.631  11.614 -0.2078  0.1354  0.1154
17342PP      PP27446   0.388   0.570  11.225 -0.1537 -0.0925 -0.2628
17343PP      PP27447   8.747  15.348  11.131  0.3874 -0.2647 -0.1074
17344PP      PP27448  11.926   5.008   5.163 -0.2030 -0.2697  0.1689
17345PP      PP27449   0.609   7.222  10.778 -0.3520 -0.2781 -0.0230
17346PP      PP27450   8.166   2.570   1.140 -0.1250  0.0096  0.0964
17347PP      PP27451  15.185   3.918   1.535  0.0811 -0.2749  0.2428
17348PP      PP27452  11.046   4.133   4.677 -0.0365 -0.1853  0.0371
17349PP      PP27453  10.458   6.989   4.002 -0.0056 -0.1273 -0.2163
17350PP      PP27454   9.655   9.837  10.260  0.0313  0.2675  0.0434
17351PP      PP27455  10.094  11.972  11.277  0.2196 -0.0983 -0.1115
17352PP      PP27456  13.096   9.683   1.967  0.1106  0.0045 -0.0988
17353PP      PP27457   6.517  15.790   0.369 -0.0416  0.0000  0.1895
17354PP      PP27458  15.768  14.665   1.590 -0.1805  0.0099  0.2092
17355PP      PP27459   1.842   2.378  13.229 -0.1285  0.2028  0.1781
17356PP      PP27460   7.010  12.266  12.958  0.0873  0.2469 -0.0067
17357PP      PP27461  15.140  14.345   8.433  0.0749  0.1971 -0.1512
17358PP      PP27462   1.019   7.549   9.893  0.0995  0.0568  0.0139
17359PP      PP27463   5.650   4.536   0.322  0.4475  0.0677 -0.0972
17360PP      PP27464   5.972  11.333   9.598  0.2011 -0.0561  0.1346
17361PP      PP27465   8.587   9.225   8.952 -0.1985  0.1098 -0.0135
17362PP      PP27466  11.683  14.682  11.505  0.1485  0.2151 -0.1106
17363PP      PP27467  15.561  11.339  13.216 -0.1504  0.0296 -0.0593
17364PP      PP27468  13.143   1.282   1.516  0.2464  0.2715 -0.2027
17365PP      PP27469   3.569   5.446   0.683  0.0593 -0.1326 -0.0325
17366PP      PP27470   8.616   5.569   1.999  0.0866 -0.4054  0.0277
17367PP      PP27471   4.218  13.587   2.762  0.2178  0.0654 -0.1193
17368PP      PP27472   2.452   1.601  12.695  0.0446 -0.0103 -0.0560
17369PP      PP27473   9.234   6.233  10.426 -0.3583  0.2051 -0.0962
17370PP      PP27474   4.850   0.151   1.335  0.1223  0.0943  0.1884
17371PP      PP27475   5.681  12.358   0.234  0.1946  0.1266 -0.1927
17372PP      PP27476   7.266  10.542   9.936  0.0146  0.0127 -0.1961
17373PP      PP27477   5.827   3.899   9.465 -0.2968 -0.3435 -0.0902
17374PP      PP27478   0.312   8.206   9.811  0.1812 -0.1932  0.0303
17375PP      PP27479  13.466   7.703   1.607  0.0326 -0.3861  0.0405
17376PP      PP27480   3.677  15.883  10.029 -0.0167 -0.3196  0.1760
17377PP      PP27481   3.719  11.942   0.562  0.3853 -0.1967  0.0088
17378PP      PP27482   0.853  14.200   8.287 -0.0948 -0.0679 -0.1451
17379PP      PP27483  13.917   7.379   2.420  0.2521 -0.1964  0.1285
17380PP      PP27484   0.931   6.975   2.524  0.2748  0.0251  0.2999
17381PP      PP27485   0.146   1.031   0.119  0.1367  0.0688 -0.0585
17382PP      PP27486   9.707  12.324   0.694  0.1117  0.0080  0.3010
17383PP      PP27487   8.771  14.289   2.282  0.3659  0.2136  0.0447
17384PP      PP27488   9.653   4.172   1.408  0.0393  0.0080 -0.0662
17385PP      PP27489   3.582  11.653   1.027 -0.0781 -0.4172  0.5798
17386PP      PP27490  14.438   0.817   2.363  0.0656  0.0172  0.1829
17387PP      PP27491  10.636   5.115   3.726 -0.0109  0.1784  0.1528
17388PP      PP27492   0.703   3.280   9.008  0.0430  0.2105  0.0846
17389PP      PP27493  15.122   0.863  13.043  0.0259  0.2286  0.1702
17390PP      PP27494   2.488  14.135  10.230 -0.0200  0.1675  0.5848
17391PP      PP27495  13.810   8.674  12.795  0.4545  0.0526  0.0371
17392PP      PP27496   0.487   8.394  12.299 -0.1106  0.1473 -0.2604
17393PP      PP27497   1.989   5.221   0.487 -0.0273  0.1008  0.3758
17394PP      PP27498   1.669   2.449  11.397 -0.2338 -0.0272 -0.2448
17395PP      PP27499   3.803   2.511  12.393 -0.2817  0.1207  0.2043
17396PP      PP27500   1.018   0.181   8.645 -0.0929 -0.0089 -0.3323
17397PP      PP27501   7.600   3.295   8.786  0.2700 -0.3106  0.1236
17398PP      PP27502  10.584  11.905  12.579 -0.0174  0.1385  0.2245
17399PP      PP27503  11.374   3.314   1.439 -0.1650 -0.0264  0.2123
17400PP      PP27504   3.171   9.876   0.572  0.0981 -0.0338  0.0200
17401PP      PP27505   7.595   8.629   4.956 -0.1637 -0.0125  0.0529
17402PP      PP27506   8.593   1.069  12.014 -0.1447  0.4219  0.2422
17403PP      PP27507  11.595   7.692  10.862  0.3317 -0.1242  0.1841
17404PP      PP27508   4.677   3.838  10.124 -0.1122  0.4399  0.0272
17405PP      PP27509   2.715  14.163  11.485  0.5083 -0.0493 -0.2774
17406PP      PP27510   9.003   6.542  10.156  0.0717 -0.2633  0.0552
17407PP      PP27511   6.329  13.212  10.865 -0.0160  0.1046 -0.0149
17408PP      PP27512   4.465  11.404  12.497 -0.0820 -0.1832  0.2167
17409PP      PP27513   8.650   3.314  10.935 -0.2127  0.1887 -0.0778
17410PP      PP27514   7.355   4.281   4.616 -0.4496  0.0180  0.1325
17411PP      PP27515   4.756   3.339  11.609 -0.0206 -0.0805  0.0297
17412PP      PP27516   4.311  10.371   4.893 -0.0119  0.0594  0.3846
17413PP      PP27517  14.275   2.755  12.520  0.2945 -0.0193  0.1185
17414PP      PP27518   2.994   2.928   9.134 -0.1564  0.1058 -0.0915
17415PP      PP27519   2.565  10.438   4.444  0.1229 -0.0543 -0.2481
17416PP      PP27520  14.926  12.908   1.347 -0.0853  0.1045 -0.0654
17417PP      PP27521  13.845   4.420  12.469  0.0695  0.0864 -0.0162
17418PP      PP27522   5.467  10.976   2.094 -0.0367 -0.0269 -0.1842
17419PP      PP27523   1.364   8.326  13.004 -0.1018 -0.5422  0.2215
17420PP      PP27524   9.305   5.207  10.185 -0.1157  0.1511 -0.0027
17421PP      PP27525  13.938   3.847  10.319 -0.2380 -0.0288  0.0176
17422PP      PP27526  14.896   4.180   2.831 -0.1683  0.0581 -0.0798
17423PP      PP27527   0.617  15.048   8.751 -0.1145  0.1852 -0.0289
17424PP      PP27528   2.423   6.534  11.271 -0.1533 -0.0323 -0.1580
17425PP      PP27529  12.324  12.005   1.193 -0.3332  0.0664  0.0943
17426PP      PP27530   8.263   9.687   9.387 -0.0886  0.0079 -0.0408
17427PP      PP27531   1.733   6.926   1.816 -0.0239  0.0591  0.5618
17428PP      PP27532   2.290   4.738  13.079  0.2076  0.1106 -0.2042
17429PP      PP27533   0.585   8.586   9.696  0.3507  0.2264  0.0821
17430PP      PP27534  11.685  15.110   9.861  0.0136  0.1958 -0.0240
17431PP      PP27535   4.414  13.054   4.752 -0.2060 -0.1063  0.4052
17432PP      PP27536   8.786   1.760  10.035 -0.2972 -0.0915  0.2547
17433PP      PP27537  15.184  13.474   3.124  0.1464 -0.2493  0.0675
17434PP      PP27538  11.684   0.414   1.747 -0.3706 -0.1835  0.3096
17435PP      PP27539   5.748   2.449   9.176 -0.1563  0.2236 -0.1085
17436PP      PP27540   2.057  15.666  13.327  0.4237 -0.4052 -0.0197
17437PP      PP27541   8.483  10.505   4.093 -0.0802 -0.1367  0.5120
17438PP      PP27542   5.481   1.343  10.025  0.2167 -0.0246  0.1358
17439PP      PP27543  14.166  14.818  10.805 -0.0164 -0.2118  0.0409
17440PP      PP27544  14.812  12.162   3.714 -0.0443  0.1451  0.2858
17441PP      PP27545   2.186  13.051   3.363  0.1105  0.0102 -0.0989
17442PP      PP27546  15.370  14.040  11.678 -0.0313  0.0429 -0.2876
17443PP      PP27547   8.551  15.526   2.058 -0.1810 -0.1293 -0.0844
17444PP      PP27548   7.329   6.390   2.138 -0.0343 -0.2699 -0.1076
17445PP      PP27549  11.562   7.163  10.802 -0.2928 -0.2348 -0.1096
17446PP      PP27550   4.762   6.115   4.345  0.3379 -0.0750 -0.0876
17447PP      PP27551  13.116   4.318  10.831 -0.4782 -0.1618 -0.1961
17448PP      PP27552   4.111   7.559   0.440  0.1939  0.0925  0.3142
17449PP      PP27553  13.369   2.100   0.539 -0.1921  0.1973  0.1294
17450PP      PP27554   7.342   5.369   2.679  0.3406 -0.1523  0.2198
17451PP      PP27555   8.245  12.182   0.449 -0.2241  0.1981  0.0511
17452PP      PP27556  15.611   5.982  13.365  0.0194 -0.3933  0.0883
17453PP      PP27557   1.737   4.528  11.763  0.1718 -0.1962  0.1182
17454PP      PP27558   9.867   3.383   9.852 -0.0036  0.0053  0.0397
17455PP      PP27559  11.677   8.097  11.129 -0.0512  0.0549  0.1601
17456PP      PP27560   3.202   5.594   3.923  0.1711  0.1622 -0.1440
17457PP      PP27561   1.972  15.175  13.438  0.2854  0.1490 -0.1242
17458PP      PP27562   3.632   6.926   1.148 -0.0429  0.0228  0.0325
17459PP      PP27563   2.985  14.093   3.575 -0.1370  0.3324 -0.0429
17460PP      PP27564   2.103  15.609   3.796 -0.1396 -0.1814  0.3196
17461PP      PP27565   8.130   8.045  12.198  0.0999 -0.3256  0.1025
17462PP      PP27566   4.062   7.910  11.311  0.1658 -0.0048  0.1818
17463PP      PP27567  12.698   1.263  13.283  0.0212 -0.2251  0.0940
17464PP      PP27568  15.716   1.897   3.120  0.2268  0.1115 -0.3048
17465PP      PP27569  11.643   6.525   0.764 -0.0446 -0.0269  0.0404
17466PP      PP27570  11.554  12.282  11.498  0.0064 -0.0288  0.1921
17467PP      PP27571   4.456   5.138   3.927  0.2069  0.0511  0.2332
17468PP      PP27572   3.004   2.589   1.769  0.1061  0.1045  0.0223
17469PP      PP27573  11.990  10.379   1.226 -0.0877 -0.3230  0.4700
17470PP      PP27574   2.565  15.510   1.137  0.1220  0.1923  0.3302
17471PP      PP27575   6.967   7.688   1.836  0.3976  0.3044  0.1427
17472PP      PP27576   3.064  10.684   2.590 -0.3861 -0.0398  0.1636
17473PP      PP27577  14.937   0.081   0.320 -0.0681 -0.1113 -0.2690
17474PP      PP27578   1.031   4.030  11.851  0.1185 -0.2290 -0.1177
17475PP      PP27579  12.902  13.086  11.120 -0.1404 -0.4878 -0.0748
17476PP      PP27580   2.017   9.065  11.797  0.0815  0.1601  0.0361
17477PP      PP27581  11.365   0.217  11.788  0.0576 -0.0397  0.0224
17478PP      PP27582  10.830   9.375   9.727 -0.1928  0.3334  0.0313
17479PP      PP27583  14.861  10.306   0.229 -0.1120  0.0827  0.0470
17480PP      PP27584   4.482   1.771   3.544  0.0883  0.2614  0.3315
17481PP      PP27585   3.755  13.564   2.226  0.0968  0.0211 -0.2248
17482PP      PP27586  11.465  11.069   0.296  0.0230 -0.2342 -0.4465
17483PP      PP27587   7.893   0.465   8.471  0.1443 -0.1517 -0.3208
17484PP      PP27588   9.317   3.028   3.605 -0.2698 -0.1375  0.0772
17485PP      PP27589   0.894   7.818   1.688 -0.2069 -0.0365  0.2830
17486PP      PP27590  11.807   2.360   4.016  0.0297 -0.2779 -0.0608
17487PP      PP27591   9.187   8.795   1.515  0.1009 -0.0776  0.2728
17488PP      PP27592   7.721   2.473   1.284  0.0389  0.1572  0.1193
17489PP      PP27593  11.802  14.517   0.105 -0.1090  0.0773 -0.1023
17490PP      PP27594  14.735  11.672   9.129 -0.1342 -0.0256 -0.2714
17491PP      PP27595   1.658   2.094   8.983 -0.1348  0.0606 -0.0524
17492PP      PP27596   5.274   4.398   1.139 -0.0710 -0.2315 -0.0775
17493PP      PP27597  11.490   7.868  10.397  0.1028 -0.1538 -0.0431
17494PP      PP27598   2.183   4.509   1.721 -0.3312 -0.1601  0.0148
17495PP      PP27599   7.098   1.317   1.244  0.0682 -0.0353  0.2541
17496PP      PP27600   1.552  11.435   2.825  0.1361 -0.2555 -0.1792
17497PP      PP27601  13.958  15.255   0.519 -0.0308 -0.0999  0.1296
17498PP      PP27602  14.331  10.986  12.213 -0.0551 -0.1694 -0.2055
17499PP      PP27603   9.666   2.038   1.391 -0.1910  0.1211  0.1060
17500PP      PP27604   3.815  10.874   2.276  0.0947  0.0139 -0.0831
17501PP      PP27605   7.090  14.376   5.096 -0.1463  0.0679  0.0169
17502PP      PP27606   4.172   2.805  12.244 -0.2792  0.0564  0.3067
17503PP      PP27607  14.652  11.047   9.916 -0.1097 -0.3566  0.0797
17504PP      PP27608   9.682  12.069  12.646 -0.3428 -0.0881  0.1225
17505PP      PP27609  10.435   9.757  10.947  0.1520  0.1043  0.5205
17506PP      PP27610   4.596   7.097   4.087  0.1875 -0.1204 -0.1518
17507PP      PP27611   0.745   1.117   8.289 -0.0730 -0.2929 -0.2529
17508PP      PP27612   4.208   0.525   1.974 -0.0648  0.0926 -0.0061
17509PP      PP27613  12.025   2.679   2.977 -0.0539 -0.2061  0.1657
17510PP      PP27614   4.285   2.499   4.311 -0.1354 -0.1816 -0.1766
17511PP      PP27615  12.088  11.610   9.267  0.2304 -0.2276 -0.1062
17512PP      PP27616   0.316  14.757   0.300  0.0982 -0.0162 -0.0756
17513PP      PP27617   6.166   5.346   1.335 -0.1588  0.1443  0.1457
17514PP      PP27618   3.146   7.100   4.237  0.2193 -0.1721  0.4569
17515PP      PP27619  15.486  14.632  12.814  0.3083 -0.0111  0.2260
17516PP      PP27620   1.461   0.347   1.530  0.2035 -0.1570 -0.4201
17517PP      PP27621   5.952  11.057   0.834 -0.0251 -0.0571 -0.0851
17518PP      PP27622   4.921   9.519   4.886 -0.0055  0.2901 -0.1399
17519PP      PP27623  13.551   8.319   2.650  0.0137  0.1850 -0.0962
17520PP      PP27624   7.481  15.666   4.195  0.3566  0.6107 -0.0593
17521PP      PP27625  15.330   2.685   0.928 -0.0553  0.1174  0.0123
17522PP      PP27626   4.652   4.688   4.082  0.0031  0.0342  0.5088
17523PP      PP27627   8.533   4.894   3.310 -0.1577 -0.3034  0.0075
17524PP      PP27628   2.041   1.037  10.371 -0.1653 -0.0248  0.1980
17525PP      PP27629  12.915  15.766   2.386 -0.0478 -0.1617 -0.0758
17526PP      PP27630   5.445   8.891   4.834  0.0330 -0.2200 -0.1596
17527PP      PP27631  13.477   9.699  10.274  0.3007  0.1362 -0.3362
17528PP      PP27632  13.545  15.549   0.285 -0.1195 -0.0206  0.0203
17529PP      PP27633   8.937   7.671  12.663  0.1803 -0.0873  0.0169
17530PP      PP27634  15.240   6.222   0.864 -0.2899  0.3537 -0.0268
17531PP      PP27635   4.813   2.863   1.889 -0.0687  0.1750 -0.0831
17532PP      PP27636  12.054   3.537  10.447  0.0260  0.5589 -0.2532
17533PP      PP27637   1.411   5.137  11.943  0.1406  0.3042 -0.0602
17534PP      PP27638   3.463  14.483  11.725 -0.1096 -0.1080  0.1317
17535PP      PP27639   5.590   4.342  10.559  0.1645 -0.4583  0.0748
17536PP      PP27640   6.726   4.048  12.111 -0.0830 -0.1159  0.1305
17537PP      PP27641   8.204   9.097   9.372  0.4106  0.1935  0.2740
17538PP      PP27642   6.052  11.776   4.667  0.2143  0.2243  0.1479
17539PP      PP27643   9.680  12.072   9.730 -0.1848 -0.1270 -0.1441
17540PP      PP27644  10.941   3.612  13.419 -0.0646 -0.0422 -0.1409
17541PP      PP27645   9.819   9.738   1.429  0.1834  0.0143 -0.1099
17542PP      PP27646   4.449  10.137  10.402 -0.3283  0.2230  0.1125
17543PP      PP27647   2.965   1.811   3.829 -0.0513  0.2325 -0.1038
17544PP      PP27648   8.331   4.536   1.630  0.0657 -0.2382 -0.0361
17545PP      PP27649  10.107   6.689  10.808 -0.0529 -0.0992  0.0706
17546PP      PP27650  13.483  11.244   2.050  0.1169 -0.3029 -0.1462
17547PP      PP27651   0.250   4.029   1.042 -0.2956 -0.0100 -0.3117
17548PP      PP27652   0.037   5.094   3.823 -0.1124  0.1510 -0.2526
17549PP      PP27653   4.524   1.447  12.925 -0.1502 -0.1023  0.0117
17550PP      PP27654  12.340   3.027   4.395  0.1959 -0.0262 -0.0499
17551PP      PP27655   3.351   3.130  13.227 -0.3449  0.1660  0.1070
17552PP      PP27656   2.991  13.286   3.844  0.0682  0.0881  0.3600
17553PP      PP27657  12.001   4.924   8.862 -0.1452 -0.0829 -0.1002
17554PP      PP27658   7.088   5.644  10.331  0.1546  0.2740  0.1447
17555PP      PP27659   8.125  10.609   0.900 -0.0260 -0.2038 -0.3540
17556PP      PP27660   1.866   6.517  11.169 -0.2870 -0.0542 -0.2851
17557PP      PP27661  10.072   1.330  11.036 -0.1828  0.1701 -0.2870
17558PP      PP27662  10.090  13.717  11.344  0.0829  0.2306 -0.4053
17559PP      PP27663   5.732   2.585   1.573  0.2632 -0.1775 -0.1405
17560PP      PP27664   5.113  11.162  11.351  0.1070  0.0270  0.1062
17561PP      PP27665  15.437   0.080  10.209 -0.0639  0.1701 -0.0410
17562PP      PP27666   2.457  14.660  12.623 -0.3111  0.1685 -0.1262
17563PP      PP27667   9.343   0.185  11.504 -0.1245  0.0677 -0.0106
17564PP      PP27668   1.757   2.189  12.016  0.1364 -0.1162 -0.1006
17565PP      PP27669  11.630  13.451  12.135 -0.3625 -0.1510  0.1957
17566PP      PP27670   5.022   7.016   4.360 -0.1671 -0.0988  0.2392
17567PP      PP27671  10.400   6.387  11.095  0.0776  0.0198 -0.1538
17568PP      PP27672   0.798   3.774   3.870 -0.2275  0.0593  0.3351
17569PP      PP27673  15.035   8.299  11.996 -0.2709  0.0132  0.2080
17570PP      PP27674  12.802   2.973   4.567  0.0101 -0.1448  0.0711
17571PP      PP27675   4.708  14.518   4.179  0.0343 -0.2922  0.3663
17572PP      PP27676   2.647   7.517   5.506 -0.3589 -0.0858  0.1686
17573PP      PP27677   4.298  11.666   2.258 -0.0475 -0.0762 -0.1916
17574PP      PP27678  10.848   8.884   2.548  0.5498  0.3107  0.1893
17575PP      PP27679  12.373  10.151   3.210 -0.1627  0.1053 -0.0082
17576PP      PP27680   0.194  15.016  13.343 -0.2800  0.2334  0.0031
17577PP      PP27681   2.110   8.739   4.196 -0.1498 -0.1427  0.2086
17578PP      PP27682  11.449  14.768  12.223 -0.3079 -0.0491 -0.1182
17579PP      PP27683   3.393   9.805  12.694 -0.1685 -0.0258 -0.1746
17580PP      PP27684   9.069  13.924  10.882 -0.1331 -0.2354 -0.4639
17581PP      PP27685   5.569   7.142   0.241  0.1427 -0.1967 -0.3394
17582PP      PP27686   3.250  10.889  11.744  0.1983  0.1417  0.0693
17583PP      PP27687  13.713   4.039  12.148  0.1340  0.3550 -0.2873
17584PP      PP27688   4.935   6.547  12.666 -0.2218 -0.0885  0.1419
17585PP      PP27689   8.393   4.599  13.287  0.0016  0.2219  0.0822
17586PP      PP27690   0.538   3.056  10.745 -0.2226 -0.1407  0.1771
17587PP      PP27691   5.046   1.083   3.522 -0.0593  0.3820 -0.3319
17588PP      PP27692   2.772  14.916   0.278 -0.0679  0.2304  0.0294
17589PP      PP27693   6.710   9.740   0.270  0.3171  0.1477 -0.0829
17590PP      PP27694   5.195   4.161   1.757  0.1185  0.1010 -0.0884
17591PP      PP27695  12.071   7.272  10.858 -0.0883 -0.4325  0.1937
17592PP      PP27696   0.851  11.406   9.975 -0.1845 -0.0553  0.2672
17593PP      PP27697  10.332   4.830  12.492 -0.1601  0.2081 -0.2058
17594PP      PP27698   4.371  12.178   4.276 -0.2738 -0.0193 -0.2224
17595PP      PP27699   6.053   2.142   3.023  0.0248  0.1840  0.0593
17596PP      PP27700   3.973  15.851  10.478 -0.1046  0.2467  0.1309
17597PP      PP27701   6.912  10.233   4.918 -0.1237  0.2134  0.1410
17598PP      PP27702   7.458  14.474  13.274  0.1460  0.1054  0.0286
17599PP      PP27703  11.874   7.589   4.325 -0.0473 -0.1348  0.2099
17600PP      PP27704  11.603  10.891   1.979 -0.0995  0.0060 -0.2767
17601PP      PP27705   7.756   1.654  12.069  0.0837 -0.2358  0.1730
17602PP      PP27706  10.240   9.783  10.466 -0.0969  0.0246 -0.2234
17603PP      PP27707   7.590   3.789  12.791 -0.1037 -0.2317  0.1066
17604PP      PP27708  14.120   4.293  12.929 -0.1782  0.4185  0.0011
17605PP      PP27709  15.079  13.958   3.296 -0.0921 -0.0158  0.0836
17606PP      PP27710   6.326  13.516   0.497  0.0289  0.0716 -0.0766
17607PP      PP27711   3.501  12.885   2.384 -0.1257 -0.1329  0.1022
17608PP      PP27712   8.636  13.128   2.017  0.1252  0.0397  0.1129
17609PP      PP27713  12.557   2.633   3.254  0.3535  0.2029  0.1325
17610PP      PP27714  13.948   3.930   1.184  0.3121  0.1360  0.0044
17611PP      PP27715   0.898  10.452  12.632  0.1713 -0.2906  0.3773
17612PP      PP27716   3.933   9.512   4.702  0.0923 -0.1844  0.2234
17613PP      PP27717   1.039   3.362   1.011 -0.2997  0.1437  0.0755
17614PP      PP27718  12.577  10.219   1.073 -0.0743 -0.1495  0.2471
17615PP      PP27719  10.934  14.569  12.526  0.0096 -0.0081 -0.4920
17616PP      PP27720   9.153   6.136   2.934 -0.0545  0.1247  0.0754
17617PP      PP27721   2.613   7.715   0.526  0.0683  0.1171  0.3927
17618PP      PP27722   7.606   4.194   0.408  0.0504  0.1063  0.0827
17619PP      PP27723  12.216   5.534   2.667  0.1496 -0.1790  0.1101
17620PP      PP27724   7.600  10.885   4.354 -0.2257  0.0565 -0.2845
17621PP      PP27725   6.608   2.685   3.682 -0.0777 -0.2715 -0.5291
17622PP      PP27726   6.122  12.503  12.537 -0.1690  0.1654 -0.0736
17623PP      PP27727   6.245   9.136   2.080  0.1831  0.0434  0.2209
17624PP      PP27728   2.039  15.465  10.482 -0.0528  0.2592 -0.0435
17625PP      PP27729   1.273  13.759  10.338  0.1837  0.0156 -0.1322
17626PP      PP27730   7.827  13.493   0.904  0.0478 -0.0046  0.0287
17627PP      PP27731   2.943   4.984  12.556 -0.0922  0.0727 -0.1354
17628PP      PP27732   5.988   8.869   5.033 -0.1531  0.5692 -0.1360
17629PP      PP27733   3.633   1.793  10.545 -0.0330 -0.2278 -0.1302
17630PP      PP27734   4.224   1.659   9.174 -0.0119 -0.3013  0.1458
17631PP      PP27735   3.718  11.121  13.162 -0.0731 -0.0210  0.0050
17632PP      PP27736   7.494  12.062   2.835 -0.1230  0.0258 -0.0999
17633PP      PP27737  10.413   1.073   2.791  0.3409 -0.0883 -0.1881
17634PP      PP27738   1.170   1.557   2.421  0.0723 -0.1914 -0.0157
17635PP      PP27739   1.647   6.327   0.296 -0.1054 -0.0730 -0.2074
17636PP      PP27740  12.130  11.516   3.665 -0.1735  0.4058 -0.1411
17637PP      PP27741   0.442   2.532  11.927  0.1056  0.0331  0.2293
17638PP      PP27742   8.741   6.270   0.886  0.3518 -0.1971  0.1877
17639PP      PP27743   9.417   8.330   3.149  0.2311  0.1608 -0.0373
17640PP      PP27744  10.417  11.906  11.740 -0.2921 -0.0241  0.0867
17641PP      PP27745   1.325   9.951  11.463  0.0493  0.3084  0.0756
17642PP      PP27746   8.975  11.435  10.555 -0.1017 -0.2316  0.3273
17643PP      PP27747  12.757   6.002   1.344  0.3885  0.2612  0.0351
17644PP      PP27748   7.117   7.474   0.983  0.1065 -0.0213 -0.1293
17645PP      PP27749   8.497   2.671   9.621 -0.0953 -0.1118 -0.3538
17646PP      PP27750  14.038   2.672   0.020  0.0398  0.3095 -0.1452
17647PP      PP27751   2.059   2.413  12.316 -0.2037 -0.1211 -0.0014
17648PP      PP27752   9.273  15.819   9.666 -0.0715  0.1380 -0.3721
17649PP      PP27753   3.833   0.314   2.692  0.1843  0.1368 -0.0665
17650PP      PP27754   1.131   7.831   3.455 -0.1527  0.4603 -0.2331
17651PP      PP27755  11.910   4.591   9.320  0.1837  0.0086  0.0196
17652PP      PP27756  13.347   9.600   3.461 -0.0984 -0.0976 -0.4690
17653PP      PP27757   9.223  12.189  11.281 -0.1947  0.1516  0.2893
17654PP      PP27758  14.690  10.686  11.197  0.2591  0.0192 -0.2836
17655PP      PP27759  12.103   6.284  10.823 -0.3463  0.0094  0.1380
17656PP      PP27760  11.007   9.745  13.344 -0.0604  0.3726  0.1895
17657PP      PP27761  14.984   0.038   8.765  0.1436  0.2750  0.2105
17658PP      PP27762  14.649   3.223   3.381 -0.3240 -0.0750 -0.2114
17659PP      PP27763  10.655   5.104   2.764  0.1823 -0.1174 -0.1183
17660PP      PP27764   9.362  12.646   9.793  0.1433 -0.1724  0.0819
17661PP      PP27765   9.025   0.611  10.348  0.2740  0.1055 -0.0124
17662PP      PP27766   8.275   1.875   2.524 -0.1558  0.3655  0.0051
17663PP      PP27767   2.341  10.277   1.912 -0.1584 -0.0693  0.1729
17664PP      PP27768   9.552   7.960   9.527 -0.2149  0.3414  0.0670
17665PP      PP27769  15.805  15.327   0.246 -0.0261  0.0880  0.2226
17666PP      PP27770  10.018   0.600   9.078 -0.0895 -0.1232  0.0125
17667PP      PP27771   7.731  10.448  11.634  0.0227  0.2705  0.0956
17668PP      PP27772   9.729   9.564   3.406  0.2720  0.1842 -0.1966
17669PP      PP27773   8.798  13.559   2.217 -0.1425 -0.0902  0.3064
17670PP      PP27774  11.141   1.094   3.729  0.0926  0.1443  0.1200
17671PP      PP27775   2.240   1.059   1.890  0.3875 -0.2513 -0.2442
17672PP      PP27776   1.565   9.255  10.638 -0.1497  0.0888  0.2126
17673PP      PP27777   5.478  13.533   2.300 -0.0091 -0.0250  0.1417
17674PP      PP27778   1.347  10.368  12.418  0.2533  0.0800  0.0530
17675PP      PP27779  12.824   3.288   5.017 -0.1775  0.2772  0.1403
17676PP      PP27780   1.575   0.039   0.232  0.1866  0.1417 -0.2107
17677PP      PP27781   8.146  15.076  10.703 -0.0210  0.0745 -0.0147
17678PP      PP27782   8.991   7.322  11.026 -0.0119  0.2195 -0.2698
17679PP      PP27783   3.158  13.094   9.819 -0.0924  0.0756  0.1628
17680PP      PP27784  11.290   7.432  10.466 -0.2486  0.0617  0.0294
17681PP      PP27785  10.760  13.109   1.544 -0.1014  0.1688  0.1048
17682PP      PP27786   8.443   5.397   3.536 -0.1936 -0.2155 -0.3796
17683PP      PP27787   7.037  12.153   2.748  0.1938 -0.0221  0.2851
17684PP      PP27788   3.476  11.002   0.154 -0.0251  0.0501 -0.1078
17685PP      PP27789  12.852  13.294  11.788  0.2597 -0.0716  0.2742
17686PP      PP27790   2.952   2.235  10.034  0.0300  0.0130  0.0001
17687PP      PP27791  10.576   7.107   8.776  0.0454 -0.1883  0.1793
17688PP      PP27792  14.620   5.298   1.626 -0.0630  0.0055  0.0149
17689PP      PP27793   8.191   5.115  10.870 -0.0297 -0.2932  0.0307
17690PP      PP27794   7.506   2.312  12.374  0.0677  0.1359  0.0161
17691PP      PP27795  15.542  10.115   1.114  0.3307  0.0828 -0.1358
17692PP      PP27796   3.778  11.580  10.198  0.0281  0.4041 -0.1604
17693PP      PP27797  14.134  11.820   3.821 -0.2157 -0.0611 -0.0692
17694PP      PP27798  15.738  13.667   9.041  0.2079 -0.1332  0.0800
17695PP      PP27799   4.574   5.458  13.010 -0.1664  0.4071  0.2819
17696PP      PP27800  10.211   4.375  10.654 -0.0590  0.2134 -0.1514
17697PP      PP27801   1.829   2.662   2.433  0.2159 -0.0249 -0.1457
17698PP      PP27802   5.676  15.047   3.996  0.0504 -0.0269  0.1670
17699PP      PP27803   8.306   1.782   3.183 -0.0356  0.3436  0.1718
17700PP      PP27804  10.190   8.045   3.567  0.1218  0.1565  0.2780
17701PP      PP27805  13.940  13.327  12.619  0.4360  0.1405 -0.1039
17702PP      PP27806  11.827  12.878   3.773 -0.0795  0.0815  0.0354
17703PP      PP27807  15.436  12.200  12.308  0.1388  0.1190 -0.3024
17704PP      PP27808  10.504   8.387   0.664  0.0576 -0.0851  0.0748
17705PP      PP27809  12.614  10.794   1.794 -0.1243  0.2632 -0.0037
17706PP      PP27810  13.974   5.329  12.972 -0.3111 -0.1020 -0.0416
17707PP      PP27811   6.705  12.692   1.643  0.1121 -0.0685  0.0630
17708PP      PP27812  11.721  12.659   9.436  0.1436 -0.0923  0.0411
17709PP      PP27813   8.708   1.924   9.008 -0.1361  0.2792 -0.1348
17710PP      PP27814  15.266   6.748   1.469  0.1185  0.1732  0.0621
17711PP      PP27815  12.828  14.972  11.917  0.0637  0.1251  0.1615
17712PP      PP27816   7.931   4.169  10.625 -0.0840  0.0048  0.0792
17713PP      PP27817   4.732  14.522   2.720  0.3227 -0.3503 -0.2458
17714PP      PP27818   5.665   4.817   4.119 -0.2747 -0.1328  0.0368
17715PP      PP27819  13.638   9.185   0.223 -0.0624  0.0484 -0.0279
17716PP      PP27820  10.705  13.051  12.712  0.0125 -0.0760  0.2409
17717PP      PP27821  11.559  13.589   3.431 -0.0506 -0.0775  0.2072
17718PP      PP27822   9.162   7.771  11.177 -0.1178  0.1555  0.0690
17719PP      PP27823   9.518  11.825   8.795  0.1772  0.1202  0.0526
17720PP      PP27824  10.770  11.943   2.984  0.0397 -0.2748  0.0529
17721PP      PP27825   1.791  14.835  13.016  0.1213 -0.0728  0.5712
17722PP      PP27826   9.472   9.687   2.961  0.1906  0.1624 -0.0954
17723PP      PP27827   2.990   1.178   4.241  0.2317 -0.0743 -0.1235
17724PP      PP27828   1.015   8.121  12.249  0.0275 -0.0250  0.4080
17725PP      PP27829   9.261  10.317  11.194  0.2338 -0.0484 -0.0409
17726PP      PP27830  11.759   7.167   4.531 -0.0593 -0.0396  0.1515
17727PP      PP27831  11.361   7.537   3.676  0.0357  0.2293 -0.1759
17728PP      PP27832  11.688  13.155   0.832  0.0195 -0.2680  0.2668
17729PP      PP27833  14.767  14.139  12.713  0.5504 -0.0751 -0.1467
17730PP      PP27834   0.906   2.750  11.426  0.0553 -0.0222  0.0184
17731PP      PP27835   8.704   8.810   1.447  0.2650  0.1404 -0.2001
17732PP      PP27836  10.383   8.506  10.223 -0.0867  0.0452  0.1993
17733PP      PP27837  11.495  12.097   3.266 -0.0244  0.0774  0.2664
17734PP      PP27838   8.586  11.757  10.544  0.1364 -0.0169  0.0576
17735PP      PP27839  15.631   2.387  13.156  0.0229  0.0731  0.0742
17736PP      PP27840   9.342   6.563   3.692  0.0587 -0.0994 -0.1310
17737PP      PP27841   4.787   0.727  12.011  0.0209 -0.0143 -0.1380
17738PP      PP27842  10.696   9.525   1.378  0.2182  0.2253 -0.0492
17739PP      PP27843   5.317   4.210   0.682  0.4798 -0.2839  0.0175
17740PP      PP27844   7.202   6.416   3.929  0.0402 -0.2886  0.0097
17741PP      PP27845   0.410   3.434   4.425 -0.1481 -0.2406  0.0029
17742PP      PP27846  15.768   5.628   0.192 -0.5266 -0.0221  0.3799
17743PP      PP27847   9.867  12.583   3.247 -0.1829  0.0207 -0.0046
17744PP      PP27848  13.256   8.063   4.128 -0.1839  0.2884 -0.0297
17745PP      PP27849   5.173   4.737   4.417  0.0442  0.1367 -0.1137
17746PP      PP27850  12.744  10.271  13.350  0.1733  0.0630 -0.2456
17747PP      PP27851  15.888   3.725   3.486 -0.0476 -0.1888 -0.2133
17748PP      PP27852  15.733   0.618   0.043 -0.0881  0.0612 -0.2015
17749PP      PP27853  12.025   0.010   9.992 -0.2183  0.1565  0.0545
17750PP      PP27854   4.545   1.288   3.680 -0.2008 -0.0567 -0.0660
17751PP      PP27855   4.003  11.163  12.263  0.4688 -0.1398  0.0447
17752PP      PP27856   6.094  10.760   9.592 -0.1499  0.0585 -0.1052
17753PP      PP27857  13.239   1.134   5.653  0.1624  0.0574  0.3119
17754PP      PP27858   6.328   7.393   9.733 -0.0983  0.1233  0.0564
17755PP      PP27859  14.025   6.414  13.298 -0.1244 -0.3972 -0.0410
17756PP      PP27860   1.990   0.184  13.089  0.0373  0.1268  0.2680
17757PP      PP27861   0.433   0.497   0.190 -0.5311 -0.0266 -0.0958
17758PP      PP27862  12.263   5.420  12.209 -0.0069 -0.1078 -0.1699
17759PP      PP27863   9.074   2.424  12.027  0.1334  0.2378 -0.3661
17760PP      PP27864   7.473   5.919   9.323  0.0770 -0.0811  0.4674
17761PP      PP27865   5.921   9.724   3.024  0.0333 -0.0088  0.0028
17762PP      PP27866   8.880   1.768  10.653  0.0800  0.0280  0.1927
17763PP      PP27867   7.917   9.110  13.328  0.0346  0.0923 -0.2686
17764PP      PP27868   1.260   3.519   1.742 -0.0766 -0.4264  0.0391
17765PP      PP27869  10.091   1.446  13.083 -0.0112  0.0461  0.0730
17766PP      PP27870   6.611  11.942   2.957  0.0469 -0.2265 -0.1148
17767PP      PP27871   5.194  12.808  11.350 -0.0017  0.1137  0.0483
17768PP      PP27872   1.116   4.686   1.275 -0.0152  0.2048 -0.2494
17769PP      PP27873   5.674  14.921   1.679  0.0631  0.1753 -0.0541
17770PP      PP27874  14.542   3.102  12.311  0.3047  0.1521  0.1432
17771PP      PP27875   0.738  12.389   9.381 -0.1438  0.0722  0.1708
17772PP      PP27876   9.083  15.616   3.526  0.3286  0.1808 -0.2891
17773PP      PP27877   5.324  15.035   8.633  0.0181  0.1528  0.1332
17774PP      PP27878   4.897  12.567  10.667 -0.0371  0.3727 -0.0207
17775PP      PP27879   8.270  13.443   2.021  0.0487  0.0658  0.0209
17776PP      PP27880  14.004  13.928  13.446  0.0228 -0.0983  0.0226
17777PP      PP27881   5.528  10.534  13.063 -0.1010  0.1702 -0.1033
17778PP      PP27882   0.237   9.721  11.205 -0.1544 -0.1793 -0.1087
17779PP      PP27883   4.020   1.962   0.012  0.1061  0.0445  0.2012
17780PP      PP27884   8.570   2.305   8.721 -0.1266  0.0362 -0.0527
17781PP      PP27885   9.973   7.882  12.286  0.1385 -0.0963  0.1680
17782PP      PP27886   4.642  13.538  10.480 -0.4464  0.2712  0.1094
17783PP      PP27887  11.065   3.588   3.237  0.0705  0.0925 -0.2028
17784PP      PP27888  14.413   7.112   0.235  0.1147 -0.0531 -0.0733
17785PP      PP27889  14.641   0.882  11.796  0.0944 -0.1110 -0.1480
17786PP      PP27890   7.065   3.576  13.419 -0.3573  0.1438 -0.0139
17787PP      PP27891   5.087   5.583  12.465 -0.0883  0.1718  0.2905
17788PP      PP27892   6.252   9.243   4.067 -0.2009  0.1704 -0.0116
17789PP      PP27893   4.954   9.489   9.554 -0.2996 -0.2422 -0.0373
17790PP      PP27894   8.662   9.605  12.958 -0.2674 -0.0962 -0.0879
17791PP      PP27895  14.362   1.811   2.185  0.0854 -0.2823  0.0430
17792PP      PP27896  14.405   4.644  12.741 -0.2659 -0.4394  0.3423
17793PP      PP27897  13.385  13.530  10.530  0.0232  0.1528 -0.0389
17794PP      PP27898   2.930  12.385   0.535 -0.5361 -0.5379 -0.1796
17795PP      PP27899   3.250  10.851  10.516  0.0530 -0.2040  0.3822
17796PP      PP27900   0.254   1.675   4.387  0.0892  0.0083  0.0822
17797PP      PP27901   4.862   2.855  11.927  0.2667  0.2824  0.0495
17798PP      PP27902   0.191   5.004   1.580  0.1122  0.1135 -0.0688
17799PP      PP27903   8.127   6.761  12.382  0.4056 -0.2054  0.6241
17800PP      PP27904   4.705  15.809  10.756 -0.2733 -0.0935 -0.0197
17801PP      PP27905  14.137  13.582   9.476 -0.1679 -0.2537  0.2290
17802PP      PP27906   3.685   1.705  13.193  0.1003 -0.0243  0.1565
17803PP      PP27907  10.555  13.129   8.742 -0.2471  0.0434 -0.1729
17804PP      PP27908   6.032   1.885   9.345  0.1180  0.1602  0.2862
17805PP      PP27909  11.051   1.222   0.543  0.0937  0.0571  0.2359
17806PP      PP27910   2.439  11.794   2.809 -0.1577  0.0515  0.0083
17807PP      PP27911   1.610  10.763   1.416  0.0977  0.0821  0.2459
17808PP      PP27912   4.755  15.263   1.192 -0.0103  0.0315  0.1115
17809PP      PP27913  11.173  11.249   2.426 -0.4412 -0.0583 -0.1463
17810PP      PP27914   3.723  15.582  13.454  0.4536  0.1998 -0.0299
17811PP      PP27915   0.687  15.516   1.074 -0.1813  0.2067 -0.2299
17812PP      PP27916   9.700   9.612   1.908  0.1060  0.4094  0.0086
17813PP      PP27917  11.842   5.491   1.703 -0.1094  0.0543  0.0462
17814PP      PP27918   0.719   6.933   3.831  0.1376  0.1696 -0.3080
17815PP      PP27919  10.886   8.680  11.858  0.0612 -0.1299 -0.2506
17816PP      PP27920  12.598   1.929   0.589  0.0617 -0.1145  0.0371
17817PP      PP27921   3.036   1.314   8.846  0.3270  0.1379 -0.1510
17818PP      PP27922   8.493   2.935   4.152 -0.0050  0.2351  0.1473
17819PP      PP27923   8.447   8.208   4.630  0.1015 -0.0115  0.2721
17820PP      PP27924   4.437   0.301  10.541  0.0934  0.2776  0.0956
17821PP      PP27925   5.229   0.224  12.561  0.1029  0.2645  0.2559
17822PP      PP27926  10.600   2.386  12.200 -0.0738 -0.0630  0.1463
17823PP      PP27927   7.196   0.499  10.005 -0.0976  0.3062  0.4248
17824PP      PP27928  13.301   2.791   1.726  0.1943  0.2083 -0.0777
17825PP      PP27929  12.075   9.727   3.583  0.0715 -0.0296 -0.1891
17826PP      PP27930   4.651   6.602  10.035  0.0486  0.3156  0.0743
17827PP      PP27931   7.651  15.223  10.804 -0.0176 -0.3996 -0.1175
17828PP      PP27932  13.960   1.919   2.499  0.1634 -0.1709  0.3101
17829PP      PP27933   7.348   9.019   4.361  0.1926  0.0811 -0.0977
17830PP      PP27934   1.712   3.374   1.264  0.2334  0.2658  0.1007
17831PP      PP27935   5.778   5.565   2.536 -0.1571  0.3500 -0.1621
17832PP      PP27936   6.864   8.338  11.535 -0.0236 -0.0017 -0.1017
17833PP      PP27937   3.525   7.769  10.102 -0.2360  0.2752  0.0914
17834PP      PP27938   1.389   7.474  11.363 -0.1254 -0.0944 -0.0941
17835PP      PP27939   1.817  14.028  12.521 -0.1497  0.0011  0.0136
17836PP      PP27940   4.729  14.939   8.955  0.1153 -0.1277  0.0050
17837PP      PP27941   8.661   2.456  11.120  0.1599 -0.1229 -0.2637
17838PP      PP27942  12.165   5.415  11.664 -0.0686 -0.2774 -0.1600
17839PP      PP27943   7.187   9.137  10.414  0.2688  0.1412 -0.1206
17840PP      PP27944  10.859   8.944  12.988  0.1213  0.0972  0.0405
17841PP      PP27945   7.130   2.390   2.026  0.0880  0.2638 -0.2228
17842PP      PP27946   1.060   9.340   2.332 -0.3687  0.1576 -0.0172
17843PP      PP27947  14.678   6.740   3.227 -0.0004  0.0817 -0.0003
17844PP      PP27948  12.786  12.003   1.196  0.0555  0.0539 -0.0551
17845PP      PP27949  14.605  15.862   1.299  0.0401  0.0660  0.3412
17846PP      PP27950   7.032   5.721   3.207 -0.3527  0.4359 -0.0209
17847PP      PP27951   5.471  10.464   1.313 -0.0671  0.0268 -0.2806
17848PP      PP27952   4.012  12.468   3.926 -0.0366 -0.2987 -0.0301
17849PP      PP27953  12.392  13.654  10.743  0.4117 -0.1558  0.0263
17850PP      PP27954   5.853   3.948  12.876 -0.2378  0.1342 -0.0914
17851PP      PP27955  11.421   6.545   3.369  0.0740  0.2146  0.1041
17852PP      PP27956   4.780   3.307   4.475  0.3663 -0.3057 -0.4115
17853PP      PP27957   7.773   6.120   2.032 -0.0790  0.0959  0.1623
17854PP      PP27958  11.962   2.253   4.952 -0.0508  0.3681  0.3051
17855PP      PP27959  11.967  13.462   2.424  0.0663 -0.0194  0.1763
17856PP      PP27960  11.007  13.426   8.615 -0.2101  0.2011 -0.3701
17857PP      PP27961  15.101   7.908  12.383  0.0446  0.1944  0.0718
17858PP      PP27962   3.733   8.543   2.886 -0.0213 -0.1507  0.0834
17859PP      PP27963   7.890   3.814   1.988 -0.0355  0.0682  0.1994
17860PP      PP27964  12.203   7.571   9.016 -0.5847  0.0401  0.1437
17861PP      PP27965   2.118   7.761   3.209 -0.0873 -0.1984 -0.0153
17862PP      PP27966   6.849   8.616   1.583  0.2926 -0.1159  0.0310
17863PP      PP27967  12.754   1.327   3.814  0.0458  0.0991 -0.3557
17864PP      PP27968  10.193  12.544  11.164  0.0628  0.2079  0.1031
17865PP      PP27969   8.023  10.134  10.278  0.2529  0.0603 -0.3865
17866PP      PP27970  15.461  15.556  11.961 -0.1782 -0.0371  0.0369
17867PP      PP27971   3.664   1.330   2.443 -0.2035 -0.1916  0.0162
17868PP      PP27972  12.061  14.392   1.179  0.3649 -0.0019 -0.1817
17869PP      PP27973   6.000   8.294  13.097  0.2561 -0.2741  0.0024
17870PP      PP27974   2.210  13.845  12.217 -0.0677 -0.0200 -0.1708
17871PP      PP27975   6.626  11.972  12.955  0.3023 -0.0734 -0.1556
17872PP      PP27976   8.534  12.017   1.803 -0.1325 -0.1607  0.1152
17873PP      PP27977   7.387   6.701   1.214  0.0893 -0.1041 -0.1360
17874PP      PP27978   5.380   4.584  11.620  0.1160  0.0728  0.3257
17875PP      PP27979  12.241   2.032  11.162  0.1892 -0.1940  0.2372
17876PP      PP27980   4.441  14.985   2.678 -0.1491  0.1721  0.0849
17877PP      PP27981  14.468   1.535  13.036 -0.2873 -0.1282 -0.0036
17878PP      PP27982   5.636  10.707   3.651  0.0317  0.0181  0.3453
17879PP      PP27983   3.788   3.314  13.118  0.0693 -0.3399 -0.2251
17880PP      PP27984   2.807  14.970  12.930 -0.2729 -0.0281 -0.1870
17881PP      PP27985   2.812   4.122   3.804  0.3393  0.2319 -0.1417
17882PP      PP27986   6.253  15.475  12.616 -0.3794  0.0437 -0.0592
17883PP      PP27987   3.376  10.776   9.922 -0.2068 -0.0253 -0.3506
17884PP      PP27988  11.023  12.665   8.535 -0.2552  0.1135  0.2893
17885PP      PP27989  12.184  11.154   8.836 -0.1754  0.0674 -0.1546
17886PP      PP27990   3.021   6.104   0.651  0.0463 -0.1306  0.3050
17887PP      PP27991   7.363   5.593   1.346 -0.1064 -0.0974 -0.0900
17888PP      PP27992  11.379   8.198   0.749 -0.1517 -0.1124 -0.4464
17889PP      PP27993   6.605  14.521   1.473 -0.0239  0.1509 -0.0363
17890PP      PP27994   6.711   3.443   1.612 -0.0751  0.3017 -0.0747
17891PP      PP27995  12.727   4.486   0.761 -0.0686  0.2416 -0.0951
17892PP      PP27996   3.064   2.373  12.857  0.0493  0.0474 -0.0207
17893PP      PP27997  14.296   9.401   9.719  0.0275 -0.3731  0.2048
17894PP      PP27998   0.629  10.190   3.516  0.2306  0.2870  0.0626
17895PP      PP27999   3.193  15.615   2.406 -0.3272  0.1414 -0.1760
17896PP      PP28000   5.110   2.088   9.061 -0.0113  0.2379  0.4295
17897PP      PP28001  11.426   9.318   4.053  0.0343 -0.1766 -0.2073
17898PP      PP28002  11.536   9.621  11.689  0.4087  0.0540  0.1414
17899PP      PP28003   4.051   8.940  12.184  0.2404  0.0944  0.2443
17900PP      PP28004  12.411   6.683   9.327  0.0856 -0.1534  0.3861
17901PP      PP28005   1.137   0.100  11.014 -0.2179 -0.0320  0.1380
17902PP      PP28006  11.246   4.034   2.113  0.1905  0.1950 -0.1520
17903PP      PP28007   6.904  12.515   0.024 -0.1300 -0.1961 -0.2777
17904PP      PP28008   3.786   9.876   2.750  0.0920 -0.0591 -0.0104
17905PP      PP28009   6.436  15.713  10.295  0.0896 -0.3253 -0.2420
17906PP      PP28010   4.225   4.886   2.174  0.1364 -0.1363  0.0058
17907PP      PP28011   4.900   0.263   2.067 -0.4492  0.0433  0.5078
17908PP      PP28012  12.369   0.905  10.359 -0.0888 -0.0559 -0.0652
17909PP      PP28013  11.103   1.918   9.547  0.1620 -0.1570 -0.0647
17910PP      PP28014   6.079   2.561  12.629 -0.1430  0.0414  0.0354
17911PP      PP28015  15.355   1.972   0.132  0.4068 -0.1550 -0.0052
17912PP      PP28016  14.366   0.401  12.073  0.0024 -0.0471  0.1937
17913PP      PP28017  13.917   6.893   2.642  0.1139  0.0453  0.0945
17914PP      PP28018  15.869   7.304   4.884 -0.0612  0.1742  0.0213
17915PP      PP28019  11.648   6.564   1.783  0.1761  0.1970  0.2171
17916PP      PP28020   0.391   5.844  10.584 -0.0172  0.0466  0.1945
17917PP      PP28021   9.951  14.568  11.516 -0.1007  0.1908 -0.0162
17918PP      PP28022   2.557   5.846   4.611 -0.2351 -0.1987  0.0683
17919PP      PP28023   2.063   4.668   9.591  0.3704  0.1765 -0.2946
17920PP      PP28024  13.989  10.876   2.787  0.0019 -0.0575 -0.4164
17921PP      PP28025   8.836  11.442   4.022  0.1480 -0.1355 -0.0314
17922PP      PP28026   5.452   3.659  12.709 -0.0857  0.0059  0.0116
17923PP      PP28027   6.277   2.460   3.268  0.2386 -0.2632  0.0214
17924PP      PP28028   4.169   5.505   1.309  0.0019 -0.0889 -0.3492
17925PP      PP28029   9.848  13.130   2.195  0.2567 -0.0849 -0.0167
17926PP      PP28030  12.563   6.280   9.596  0.1259  0.0908 -0.2911
17927PP      PP28031   1.593   5.622  11.052  0.3481 -0.1472  0.2775
17928PP      PP28032   4.070   9.855  11.150  0.1649  0.1834  0.1671
17929PP      PP28033  10.102   8.977   4.450 -0.1034 -0.1287  0.2193
17930PP      PP28034   8.303   5.421  13.167  0.1125 -0.2016  0.0025
17931PP      PP28035   2.023   5.571   4.460 -0.1822 -0.1783 -0.0652
17932PP      PP28036   3.778   0.415  12.531  0.1995 -0.1502 -0.0490
17933PP      PP28037   4.677   4.249   4.385  0.2916 -0.0986  0.4785
17934PP      PP28038  12.782   6.381   9.140  0.1589  0.0170 -0.0154
17935PP      PP28039   4.521   3.947  13.182 -0.1132  0.4222 -0.0413
17936PP      PP28040  11.910   5.480   3.096  0.0233 -0.1186 -0.0634
17937PP      PP28041  10.475  10.213   1.057  0.0712 -0.2310 -0.1623
17938PP      PP28042  13.037   9.814   0.102  0.3542 -0.0994 -0.5705
17939PP      PP28043   3.907  15.220   1.851  0.2118 -0.1919 -0.1788
17940PP      PP28044  14.994  11.441   3.605 -0.2529 -0.2500 -0.2522
17941PP      PP28045   8.867  14.183   9.856 -0.1972 -0.3040 -0.1283
17942PP      PP28046   5.557   1.912   9.225 -0.2154  0.1305  0.0686
17943PP      PP28047  14.623   0.821  12.978 -0.0015  0.2133  0.0105
17944PP      PP28048  11.859  13.440   8.376  0.1720 -0.1246  0.2713
17945PP      PP28049   5.310   2.993   2.602  0.2116  0.1292 -0.1465
17946PP      PP28050   0.826  11.959   0.393 -0.0131  0.1049 -0.0319
17947PP      PP28051   4.298  12.551   2.899 -0.2178  0.2079  0.1954
17948PP      PP28052   0.342   3.847  12.091  0.0223  0.1239 -0.2244
17949PP      PP28053  11.140   7.254  13.174 -0.0386 -0.2196  0.2814
17950PP      PP28054   0.286   7.133  10.336  0.0274 -0.0030 -0.0840
17951PP      PP28055   7.486   9.091   2.323  0.1057 -0.0633 -0.0752
17952PP      PP28056   1.191   7.915  11.796 -0.0437  0.0456  0.0984
17953PP      PP28057  13.024  11.834   3.298  0.1679 -0.1163  0.0585
17954PP      PP28058  14.554  11.539   0.095 -0.3491  0.0682  0.1576
17955PP      PP28059  12.903   9.967   2.906  0.0856  0.0198  0.0462
17956PP      PP28060   7.722  15.280   1.099 -0.2683  0.0587 -0.1049
17957PP      PP28061   9.832   8.858  12.689  0.1750  0.3421 -0.0592
17958PP      PP28062   9.888   3.034   4.237  0.2987 -0.1837 -0.2594
17959PP      PP28063   2.883   5.776   9.767  0.2170  0.0612  0.0600
17960PP      PP28064   8.826   3.111   3.803  0.4026 -0.1283 -0.1103
17961PP      PP28065   8.325  13.653   2.502  0.1704  0.1671 -0.0391
17962PP      PP28066  12.572   8.611   3.566 -0.0147  0.5298  0.3711
17963PP      PP28067   4.158   3.982   4.957  0.2249 -0.2961  0.0153
17964PP      PP28068  11.989   9.801   0.266  0.4897  0.0486 -0.1711
17965PP      PP28069  10.082   1.677  10.672 -0.0219  0.0351  0.1379
17966PP      PP28070  10.198   9.722  11.467 -0.1046 -0.0343  0.1230
17967PP      PP28071   1.834  11.173  13.371 -0.2091 -0.3412  0.1535
17968PP      PP28072  11.682   8.923   3.713 -0.2424 -0.1136 -0.0258
17969PP      PP28073   2.946   0.775   2.994 -0.2137 -0.4517  0.1561
17970PP      PP28074   5.999  13.202   0.727 -0.0933  0.1381  0.2088
17971PP      PP28075   8.819   2.941   3.289 -0.2763  0.0239 -0.2890
17972PP      PP28076  13.501  12.845   9.179 -0.0025  0.4997 -0.2810
17973PP      PP28077   4.139  11.870   3.211 -0.0611 -0.2936 -0.0791
17974PP      PP28078   8.066   1.661   4.181  0.1411 -0.1233 -0.2103
17975PP      PP28079  11.853   2.764  10.179 -0.0899 -0.2260  0.1775
17976PP      PP28080   9.571   3.089   1.760 -0.0478  0.1625  0.1909
17977PP      PP28081   2.672   7.673  12.934  0.1268 -0.3657 -0.1222
17978PP      PP28082  14.546   8.833  12.107  0.0767 -0.1042 -0.0708
17979PP      PP28083   3.594   0.991   2.789 -0.0880 -0.2115  0.0529
17980PP      PP28084   3.665  11.015  10.259  0.2644  0.1272 -0.1725
17981PP      PP28085   9.188  11.229   1.367 -0.1262 -0.0425 -0.1845
17982PP      PP28086   2.684   6.496  12.306 -0.2150 -0.0253  0.0566
17983PP      PP28087  13.133  13.230   1.052 -0.4313 -0.1258 -0.0685
17984PP      PP28088   3.259  11.861  12.527 -0.1789  0.2234 -0.1561
17985PP      PP28089   0.108  11.410  12.051 -0.3641  0.2320 -0.0320
17986PP      PP28090   7.442  13.267   0.588  0.1122 -0.1619 -0.0070
17987PP      PP28091   6.146  11.587   1.064 -0.0041 -0.1145 -0.1423
17988PP      PP28092  11.323   4.170   1.583  0.3219 -0.2854 -0.1954
17989PP      PP28093   4.767  11.553   2.204 -0.1776 -0.1640  0.2718
17990PP      PP28094   1.404  13.023   1.772  0.0513  0.1251 -0.1133
17991PP      PP28095  11.047  11.892   9.120 -0.0921 -0.2211  0.0546
17992PP      PP28096   4.422  12.593   1.814 -0.1228 -0.1298  0.0338
17993PP      PP28097   4.025   4.650  13.120  0.0592 -0.2324 -0.1773
17994PP      PP28098   1.990  15.270   9.359 -0.1264 -0.0768 -0.1289
17995PP      PP28099  10.650  14.684   2.971 -0.0361 -0.0107 -0.0749
17996PP      PP28100   3.686   0.629   3.508  0.0081 -0.1453 -0.0898
17997PP      PP28101  15.889  13.412  12.727  0.0209  0.1020  0.0900
17998PP      PP28102   8.751  13.254   2.641  0.0204 -0.0613 -0.0134
17999PP      PP28103   9.899  15.721  13.270 -0.0877 -0.0150 -0.0052
18000PP      PP28104   4.618  14.122   2.257 -0.2531  0.2217  0.3017
18001PP      PP28105  11.492   6.632   3.892 -0.0621 -0.2060 -0.0986
18002PP      PP28106  15.690   9.258   2.812  0.1466 -0.1410  0.4146
18003PP      PP28107   6.263  10.274   4.413  0.2254  0.1274 -0.0687
18004PP      PP28108  15.124   6.239   9.106  0.2817 -0.2434 -0.1499
18005PP      PP28109   3.305   4.431  10.193  0.0405 -0.2894  0.2398
18006PP      PP28110   7.041   1.779  10.309  0.2908 -0.3537 -0.1704
18007PP      PP28111   7.497   7.585   9.218  0.0269  0.2476  0.2954
18008PP      PP28112   4.627  13.982   4.558  0.0597 -0.3087  0.4230
18009PP      PP28113   4.051  12.060  13.204 -0.0362  0.0274  0.0683
18010PP      PP28114   9.948  14.582  12.473 -0.1654 -0.2118  0.1492
18011PP      PP28115   3.755   0.068   0.534 -0.0319 -0.1057  0.2067
18012PP      PP28116   3.245   8.589   5.799 -0.2471  0.1067  0.1361
18013PP      PP28117   2.864  15.543  11.616  0.1262  0.0971  0.0155
18014PP      PP28118  10.062  13.262  10.141  0.0578  0.1031 -0.0721
18015PP      PP28119   1.248  14.283   8.699 -0.1144 -0.2151 -0.0336
18016PP      PP28120  11.234   6.286  13.064 -0.0568 -0.2147 -0.2178
18017PP      PP28121   8.955  13.876  13.060  0.1401  0.0844  0.0182
18018PP      PP28122  12.140   5.173   9.423  0.0094  0.4317 -0.1524
18019PP      PP28123  10.973   8.483   3.537  0.1740 -0.2347  0.1030
18020PP      PP28124   3.086  12.725  10.354 -0.0111  0.1236  0.1223
18021PP      PP28125   0.878   5.348   3.163  0.2137 -0.0556 -0.1568
18022PP      PP28126   3.596  10.383   1.136 -0.2493 -0.1055 -0.2988
18023PP      PP28127  11.236   2.271  10.871  0.1382  0.1579  0.0851
18024PP      PP28128  13.592   1.529  10.107 -0.1936 -0.0401 -0.0070
18025PP      PP28129   3.468  15.604   4.495 -0.1464  0.1052 -0.0490
18026PP      PP28130   9.893   7.467   3.152  0.1354 -0.0770 -0.1579
18027PP      PP28131   3.706   4.261   4.337  0.1618  0.0802 -0.0837
18028PP      PP28132   9.931  10.403   0.240  0.0347  0.0019 -0.0795
18029PP      PP28133   7.965  11.934   4.322  0.1960 -0.1556 -0.0966
18030PP      PP28134   3.780   8.107  12.113 -0.0939 -0.0563 -0.1353
18031PP      PP28135   1.492  13.999   1.912 -0.5117 -0.0107  0.1377
18032PP      PP28136   9.284   0.157  10.646 -0.2483  0.0735 -0.1379
18033PP      PP28137   8.767  11.509   2.145 -0.1256 -0.0575  0.0277
18034PP      PP28138   5.724   3.423   9.402 -0.1193 -0.1505  0.2446
18035PP      PP28139   4.527   6.453  10.587  0.1754 -0.2511 -0.0256
18036PP      PP28140  10.507   9.738   2.013 -0.0201 -0.1120 -0.0487
18037PP      PP28141   0.363   6.754  11.825 -0.2978  0.2106 -0.2688
18038PP      PP28142  11.140   2.513   2.642  0.0003  0.0831 -0.0170
18039PP      PP28143  10.862   8.585   0.015  0.4287 -0.0646 -0.3351
18040PP      PP28144   3.542   4.236   4.826  0.0991 -0.1175 -0.0530
18041PP      PP28145   4.177   4.205  13.380  0.0337 -0.0974 -0.3711
18042PP      PP28146   1.224   0.391  11.796 -0.4141 -0.2382  0.0635
18043PP      PP28147   0.494  10.496  10.039 -0.1712  0.1379  0.1284
18044PP      PP28148  11.858   9.482   8.757 -0.6144 -0.1134  0.1361
18045PP      PP28149   2.694   3.061   0.525 -0.1293  0.2218 -0.0221
18046PP      PP28150   2.766   0.698  12.393  0.1244  0.0967 -0.3201
18047PP      PP28151  14.120   6.720   0.278 -0.4337  0.0415 -0.2891
18048PP      PP28152   9.714   1.097   3.198 -0.0594  0.3407 -0.1771
18049PP      PP28153   3.254   8.608   2.123 -0.0378 -0.3062 -0.1978
18050PP      PP28154   4.093  13.786   3.796 -0.1709 -0.1772 -0.0900
18051PP      PP28155  13.070   9.392   4.392 -0.2791 -0.0365  0.1224
18052PP      PP28156   8.178   2.381   9.066 -0.1579 -0.1615  0.0852
18053PP      PP28157   3.219   5.172  11.968 -0.4232  0.0820 -0.0858
18054PP      PP28158   7.864  15.591  10.082  0.1744  0.0553  0.0566
18055PP      PP28159   3.084   5.712  13.295 -0.0252 -0.3838  0.2822
18056PP      PP28160  13.088  14.916  11.091  0.0235  0.0651 -0.2466
18057PP      PP28161  14.213  10.909  13.225  0.0859  0.0348 -0.3677
18058PP      PP28162  11.764   0.660   3.097  0.0424 -0.0422  0.0032
18059PP      PP28163  10.244   5.340   8.510  0.0515 -0.1342 -0.0495
18060PP      PP28164   8.989   7.324  13.120 -0.2983 -0.0599  0.2985
18061PP      PP28165  15.369   4.024   0.725  0.3747  0.0673  0.2193
18062PP      PP28166   5.015  15.069  10.949 -0.0513  0.2351  0.1990
18063PP      PP28167   4.538   0.434  11.569 -0.0784  0.2741 -0.0107
18064PP      PP28168   4.361  15.498  10.520  0.0638  0.1490  0.0072
18065PP      PP28169  13.116  14.067   3.627 -0.0251 -0.1558  0.0516
18066PP      PP28170  10.954  12.372  10.498 -0.0950 -0.4519  0.3430
18067PP      PP28171   3.836   7.558  12.248 -0.0152 -0.1925  0.1570
18068PP      PP28172  14.958  14.349  11.439 -0.0793  0.1999 -0.0099
18069PP      PP28173   3.282   8.073   1.189 -0.0809 -0.4241  0.1955
18070PP      PP28174   3.314  13.595   4.100 -0.2212  0.0371 -0.3585
18071PP      PP28175  10.611   9.762   8.681  0.3473 -0.0579  0.2060
18072PP      PP28176  10.084   4.386  11.236  0.0306 -0.2774 -0.0357
18073PP      PP28177  12.155  11.976   1.696  0.0010 -0.3632  0.0673
18074PP      PP28178  13.953   6.289   3.461 -0.0249  0.2046 -0.0810
18075PP      PP28179   8.502  14.975  11.016  0.2879  0.1537 -0.0583
18076PP      PP28180  10.008  12.166   3.521  0.3514  0.1778  0.0304
18077PP      PP28181  15.784   2.877   3.479 -0.0883  0.3425  0.1837
18078PP      PP28182  12.024   8.680   2.979 -0.2988 -0.2474  0.0564
18079PP      PP28183   0.625  13.346   3.636  0.4666  0.2056 -0.1696
18080PP      PP28184  10.337   4.310   4.011  0.0159  0.1117 -0.1187
18081PP      PP28185   7.610   3.795   8.742  0.1576  0.0554  0.2697
18082PP      PP28186   1.699  11.509   4.187  0.0844  0.3816  0.1502
18083PP      PP28187   1.491   6.419   1.351  0.5067  0.2539 -0.2620
18084PP      PP28188  12.541   8.624   3.031 -0.4199 -0.0546 -0.2137
18085PP      PP28189   3.365   7.736  11.433  0.3257 -0.1188 -0.2923
18086PP      PP28190   1.567   9.984  12.594  0.5978  0.1655 -0.0278
18087PP      PP28191  12.421   2.108   3.973  0.1207 -0.0981 -0.1778
18088PP      PP28192   5.685   0.082  11.066 -0.0920 -0.1776 -0.1151
18089PP      PP28193   1.880  11.106   2.523 -0.1766 -0.0391  0.0594
18090PP      PP28194   9.604  11.891   3.764 -0.3171 -0.0968 -0.0309
18091PP      PP28195  11.344  15.241  12.514 -0.0112 -0.0609  0.0770
18092PP      PP28196   9.079  13.868  12.243 -0.0902 -0.1224 -0.3894
18093PP      PP28197   3.127   7.635   4.213 -0.0466 -0.0518  0.0702
18094PP      PP28198  13.331  11.864  13.358 -0.1825  0.0356 -0.1725
18095PP      PP28199   8.801   4.099   0.231 -0.3889  0.0437  0.4983
18096PP      PP28200   0.230   8.038   1.088  0.1923 -0.1888 -0.0174
18097PP      PP28201  15.004   1.388  10.477 -0.3334  0.0918 -0.2910
18098PP      PP28202   5.967  15.119   3.191  0.3194  0.4036  0.0213
18099PP      PP28203   1.177  12.370  10.187  0.0235  0.0763 -0.4299
18100PP      PP28204  13.383   6.773  11.940  0.0598 -0.0075  0.1115
18101PP      PP28205   1.911   3.555   1.992 -0.0338 -0.0352 -0.1586
18102PP      PP28206  11.406   4.276   1.025 -0.0503 -0.0244  0.1218
18103PP      PP28207  12.697  10.798  13.416 -0.2071  0.0270  0.2051
18104PP      PP28208   1.237   9.020   1.287 -0.2397 -0.1864 -0.0563
18105PP      PP28209  12.690  10.152   0.438 -0.1487  0.2071  0.1014
18106PP      PP28210   2.445  13.718   9.430 -0.0351  0.0881  0.1202
18107PP      PP28211  13.928   0.661  11.736 -0.3589 -0.1758  0.1257
18108PP      PP28212   4.036   2.474   0.601 -0.1904 -0.0974  0.2745
18109PP      PP28213   8.342  14.760   1.204  0.0912  0.0888 -0.0891
18110PP      PP28214   3.800  15.806  11.208  0.0608  0.0829  0.1903
18111PP      PP28215   0.715   0.908   2.918  0.0186 -0.0473 -0.2870
18112PP      PP28216   3.295   8.179  10.211 -0.0411 -0.2908  0.0424
18113PP      PP28217   3.656  10.918  12.621  0.0563 -0.0462 -0.2647
18114PP      PP28218   9.517   9.275   1.476  0.0192 -0.1486 -0.0062
18115PP      PP28219  11.195   3.210  12.048  0.0356 -0.0083 -0.1537
18116PP      PP28220   0.266   1.902   9.818  0.1148  0.0750 -0.0678
18117PP      PP28221   5.753   1.726  11.982 -0.1408 -0.0396 -0.0420
18118PP      PP28222   0.079   0.948  12.021  0.4447 -0.0833  0.0400
18119PP      PP28223   2.813  13.413   9.503  0.0140 -0.1191 -0.0407
18120PP      PP28224   8.797   4.497  10.463  0.1798  0.0615  0.3571
18121PP      PP28225   9.556   1.570   9.091 -0.2217  0.1213  0.5689
18122PP      PP28226  13.933   6.484   4.355  0.0052  0.2197  0.2094
18123PP      PP28227  12.058   2.255   2.295  0.3053 -0.2180  0.0156
18124PP      PP28228   9.149   1.409  11.966 -0.1250 -0.0847  0.4677
18125PP      PP28229   0.601   0.070   2.786 -0.1287  0.0950 -0.0580
18126PP      PP28230  10.625   8.080   9.390  0.0636  0.2096  0.0949
18127PP      PP28231  14.672   9.371   4.208 -0.0119  0.0663 -0.0154
18128PP      PP28232   7.408  15.619   0.082 -0.2087  0.1638 -0.3088
18129PP      PP28233   7.096   8.010  13.172  0.2741  0.1663  0.0317
18130PP      PP28234  14.332  15.667   9.415 -0.3688 -0.0377 -0.1969
18131PP      PP28235   3.856   3.475   9.590 -0.1162  0.1771  0.2119
18132PP      PP28236   1.269  11.311  10.234 -0.0745  0.1430 -0.2036
18133PP      PP28237   9.816   6.244   9.561 -0.0285  0.3059 -0.0496
18134PP      PP28238   7.716  11.461  11.004 -0.1662  0.1482 -0.3505
18135PP      PP28239   1.950  14.890  12.331 -0.1419 -0.1821 -0.1713
18136PP      PP28240   1.493   5.551  10.581 -0.1972 -0.2498  0.3353
18137PP      PP28241  12.808  14.964   4.042  0.1606 -0.1538 -0.0648
18138PP      PP28242  14.899   6.126  10.605  0.2301  0.0993  0.0537
18139PP      PP28243  11.268   3.096   9.358  0.1997 -0.0827 -0.2349
18140PP      PP28244  11.319   0.114   2.005 -0.5305  0.1212 -0.1805
18141PP      PP28245  14.066   1.237  11.007  0.4459  0.3102 -0.0070
18142PP      PP28246   2.329   5.461   4.887  0.0724  0.0572 -0.0357
18143PP      PP28247   1.225  14.512   0.437 -0.0097 -0.0732 -0.2440
18144PP      PP28248   8.332   3.062   1.334  0.3852 -0.0045 -0.3846
18145PP      PP28249   7.945  13.886   9.536 -0.0049 -0.0432  0.0058
18146PP      PP28250   2.070   3.835   2.848  0.2266  0.2219 -0.0819
18147PP      PP28251  15.063  13.940  12.128 -0.2208  0.2258 -0.1506
18148PP      PP28252   0.356   8.950  13.409  0.3721 -0.1658  0.3052
18149PP      PP28253  12.472   9.206  13.329  0.2187  0.3038  0.2117
18150PP      PP28254   0.694   2.450   4.362 -0.0182 -0.1195  0.5451
18151PP      PP28255   1.296  12.789  12.899 -0.0501  0.0546  0.0701
18152PP      PP28256  15.494   2.271  11.223  0.0372 -0.0483  0.0007
18153PP      PP28257   4.169   7.535   1.033  0.1683 -0.0876 -0.1591
18154PP      PP28258   3.596   9.686  11.972  0.0346  0.2001 -0.1203
18155PP      PP28259   4.956  10.065  12.830  0.0630 -0.0702  0.0447
18156PP      PP28260  12.568  13.493   9.882  0.0770 -0.0687 -0.1829
18157PP      PP28261  13.864   3.912  13.185  0.2672  0.0308  0.0189
18158PP      PP28262   0.591  15.796   3.496  0.1449  0.1344 -0.4469
18159PP      PP28263   9.282   5.647   3.417  0.1229 -0.0297 -0.2499
18160PP      PP28264  13.184  14.641  10.613  0.0211 -0.0806 -0.0355
18161PP      PP28265  10.710   9.305   0.053  0.1963 -0.1873  0.2856
18162PP      PP28266   0.149  14.647   8.912  0.0313 -0.1333  0.0720
18163PP      PP28267  15.878  10.250   2.704  0.0778  0.4593  0.2443
18164PP      PP28268  10.559  13.510   8.356 -0.2361 -0.0065  0.1481
18165PP      PP28269  12.346   5.882   4.554 -0.2191 -0.1946  0.0699
18166PP      PP28270   5.438  15.389  10.996 -0.1711 -0.1199  0.0802
18167PP      PP28271   0.001   5.441  10.310 -0.1815 -0.3467  0.2852
18168PP      PP28272  10.307  10.781   8.887  0.2512 -0.0828 -0.2343
18169PP      PP28273  11.793   6.982   5.056 -0.1625  0.0697  0.0894
18170PP      PP28274   4.547   5.473   0.717  0.0620  0.3595  0.1599
18171PP      PP28275  14.850  15.001   8.759 -0.3430 -0.1486 -0.0346
18172PP      PP28276  14.889   8.757  10.416  0.0763  0.0274 -0.1392
18173PP      PP28277   5.843  13.238  11.670  0.0473  0.2367 -0.0967
18174PP      PP28278   6.935  13.598   1.026  0.0128 -0.1224 -0.2168
18175PP      PP28279   3.167   4.816   1.276 -0.0262  0.1592  0.2204
18176PP      PP28280  14.547   2.053  10.102  0.0546  0.0550  0.0763
18177PP      PP28281   6.640  14.083  12.117 -0.2191  0.1687 -0.3749
18178PP      PP28282   9.413  11.985  11.810  0.2412 -0.0488 -0.2642
18179PP      PP28283   0.481   8.888  12.086 -0.3044 -0.1375 -0.3762
18180PP      PP28284   9.957  11.351  10.601 -0.0120  0.1956  0.0059
18181PP      PP28285   8.447   1.977   4.071  0.1811 -0.2285 -0.2611
18182PP      PP28286  11.241   5.884   9.840  0.0417  0.1190 -0.1629
18183PP      PP28287  12.433   7.249   9.408  0.0355 -0.1810  0.0985
18184PP      PP28288   4.631   4.147  12.575 -0.0607 -0.2840 -0.0577
18185PP      PP28289   7.762   1.343   9.961 -0.2228  0.1503 -0.1546
18186PP      PP28290  13.217   7.566  13.235  0.1346  0.0563 -0.0045
18187PP      PP28291   0.268   8.349   3.208  0.0113  0.1076  0.1267
18188PP      PP28292   3.225  11.101   4.350 -0.3324  0.0049 -0.1278
18189PP      PP28293   9.059  10.796   0.568  0.0279 -0.2573 -0.3596
18190PP      PP28294  15.349   1.458  12.400  0.2547 -0.0477 -0.0265
18191PP      PP28295  12.164  11.481  12.342 -0.0824 -0.1030  0.1258
18192PP      PP28296  13.236   2.563   9.450 -0.1797  0.2324 -0.0615
18193PP      PP28297  15.032   1.596  10.949 -0.1760 -0.1210  0.2763
18194PP      PP28298   3.110   1.131  12.329 -0.0290  0.2426  0.2042
18195PP      PP28299   1.784   8.394   5.080  0.0129 -0.0827 -0.0967
18196PP      PP28300  11.198  10.229   0.609 -0.0055  0.1035 -0.0184
18197PP      PP28301   5.633  15.392   4.441  0.2827  0.1048 -0.0549
18198PP      PP28302   9.677  15.643   8.826  0.0727 -0.0944 -0.0294
18199PP      PP28303   3.234   5.149  11.197 -0.0446  0.0175  0.0062
18200PP      PP28304  14.138   3.509   0.557 -0.1547  0.2443  0.2921
18201PP      PP28305  10.177  14.082   2.055  0.2642 -0.0905 -0.1043
18202PP      PP28306   1.165   5.608  12.907  0.0110 -0.0875  0.0120
18203PP      PP28307  15.325  14.530   1.814  0.1100  0.2960 -0.1905
18204PP      PP28308  12.567  15.446   9.406 -0.0496  0.1557 -0.2957
18205PP      PP28309  11.220   1.000   1.196  0.1482  0.0908 -0.2825
18206PP      PP28310   1.398   8.864  13.229  0.0544  0.0492 -0.0141
18207PP      PP28311  11.997   5.492   1.107 -0.0867  0.4275 -0.0389
18208PP      PP28312   5.722  12.793  12.618 -0.2783  0.4803 -0.0772
18209PP      PP28313   2.561   3.694   9.267 -0.0717  0.2185 -0.0449
18210PP      PP28314   3.419   3.196   9.401  0.0247  0.2791 -0.1492
18211PP      PP28315   2.808  12.149   1.016 -0.1164  0.0877  0.1520
18212PP      PP28316   4.812  13.776   1.206 -0.5049 -0.1006 -0.0427
18213PP      PP28317   8.964   4.735   1.818  0.1244 -0.1698 -0.0165
18214PP      PP28318  13.317   5.593   9.861 -0.3579 -0.1694 -0.1222
18215PP      PP28319   9.729  15.248  11.218 -0.0975 -0.0896  0.2158
18216PP      PP28320   1.811   1.862  13.048  0.0862  0.0953 -0.0329
18217PP      PP28321   7.547  13.552  10.894 -0.0006  0.0916  0.1649
18218PP      PP28322   6.302  10.072  10.635 -0.3236  0.0266  0.2023
18219PP      PP28323   5.525   6.514   2.044 -0.0530  0.0275  0.0550
18220PP      PP28324   0.675   2.925  13.063  0.1687  0.1908  0.2383
18221PP      PP28325  11.725  13.665   1.107  0.2386  0.2141  0.0425
18222PP      PP28326   1.744  13.401   1.446  0.0929  0.1916  0.0348
18223PP      PP28327   0.927  11.663   2.302  0.0259  0.2152  0.0073
18224PP      PP28328   0.972  12.172   2.691 -0.2618 -0.1212  0.2131
18225PP      PP28329   9.589   7.610   1.473  0.0220 -0.1023  0.0868
18226PP      PP28330  15.824   9.943   3.918  0.2308  0.1576 -0.0022
18227PP      PP28331   9.053  11.410  13.384 -0.1190 -0.1214 -0.0657
18228PP      PP28332   8.464   9.210   1.216 -0.1888  0.1328  0.0143
18229PP      PP28333  12.684  10.571   3.178  0.0322  0.3028 -0.2231
18230PP      PP28334  13.570   0.015  12.234 -0.0379  0.1294  0.1636
18231PP      PP28335  14.471  12.064   2.957 -0.0367 -0.2347  0.1894
18232PP      PP28336   1.660   2.460   8.671 -0.1324 -0.0797  0.0557
18233PP      PP28337  11.612   5.782   9.513 -0.1158 -0.1876  0.1096
18234PP      PP28338  14.487  14.688   2.256  0.0482  0.3298 -0.1023
18235PP      PP28339   9.388  14.822   2.663  0.0739  0.0543 -0.0111
18236PP      PP28340   0.696   6.336   3.280 -0.0457 -0.3068 -0.0007
18237PP      PP28341   6.478   3.095   1.159 -0.1316  0.1705  0.1029
18238PP      PP28342   0.499   9.511   4.471  0.2173  0.2915  0.0357
18239PP      PP28343  13.744  11.378  12.067 -0.3524 -0.4151 -0.1907
18240PP      PP28344   7.200   6.820   4.408 -0.0837  0.0306  0.0677
18241PP      PP28345   0.492   4.960   3.720  0.2712  0.0158  0.1067
18242PP      PP28346   8.952  15.561  10.509 -0.1861 -0.0356  0.2967
18243PP      PP28347   6.356   4.727   2.381 -0.0667 -0.1987 -0.0117
18244PP      PP28348   6.632   7.353   1.179  0.0876  0.0421 -0.0732
18245PP      PP28349   1.206  13.037  11.817 -0.1348  0.1119  0.2213
18246PP      PP28350  12.673   3.516  13.452 -0.0670  0.3208  0.1136
18247PP      PP28351   6.278  15.414   0.746 -0.1711  0.0414 -0.4325
18248PP      PP28352  15.482   8.365   2.743 -0.0721 -0.0205 -0.0866
18249PP      PP28353   6.490  14.344   9.398 -0.1155 -0.0572 -0.1654
18250PP      PP28354  13.101   9.865  12.979 -0.3002 -0.4246  0.0847
18251PP      PP28355   7.730   2.203   8.901  0.0493  0.2611  0.0385
18252PP      PP28356   0.734   2.581   3.065  0.2230 -0.1934 -0.4560
18253PP      PP28357   1.517  15.036   9.274 -0.1281  0.1250  0.1442
18254PP      PP28358   8.229  10.108   0.590 -0.0951 -0.3406 -0.1712
18255PP      PP28359   3.299  12.665   9.619  0.1508 -0.0303 -0.0877
18256PP      PP28360   0.073   4.421   1.871  0.1109  0.0362  0.2087
18257PP      PP28361  11.119   3.199   0.252  0.2661 -0.2221 -0.2851
18258PP      PP28362  12.083   5.598   5.018  0.0269  0.1290 -0.0439
18259PP      PP28363   1.474   4.177  10.180 -0.0990  0.0274 -0.0652
18260PP      PP28364   8.169  10.564  10.100 -0.3978 -0.1732  0.0945
18261PP      PP28365   9.053  11.782   0.299 -0.0249  0.2627  0.2075
18262PP      PP28366   0.460  13.143  10.551 -0.2325 -0.1649 -0.2001
18263PP      PP28367   0.607   0.719  10.736 -0.0652  0.0669 -0.2393
18264PP      PP28368   1.338   5.038   3.344  0.1852 -0.1271  0.2791
18265PP      PP28369   7.690   7.926  12.330 -0.0222 -0.1835 -0.0966
18266PP      PP28370   3.442   0.788   9.710 -0.0557 -0.1422 -0.0671
18267PP      PP28371   3.030  13.658  13.095 -0.0310 -0.1237 -0.2253
18268PP      PP28372   4.286   0.125  12.872 -0.4879 -0.1901 -0.0519
18269PP      PP28373   1.959  11.312   9.671 -0.1616 -0.1325 -0.1512
18270PP      PP28374  14.498   8.474   1.958 -0.2704 -0.1425 -0.0777
18271PP      PP28375   3.105  12.224  10.432 -0.1117  0.0766  0.1749
18272PP      PP28376  13.503   8.447  11.413 -0.2740 -0.2375 -0.1962
18273PP      PP28377  12.719  14.135   0.772 -0.1636 -0.1792 -0.0778
18274PP      PP28378  12.085   1.161   4.063  0.0715  0.2435  0.2879
18275PP      PP28379   5.208   2.025   3.634 -0.0525  0.2934 -0.2087
18276PP      PP28380  11.764   7.160  11.289 -0.0996 -0.3257  0.1341
18277PP      PP28381  11.887   2.512  10.718  0.1507  0.4160  0.1483
18278PP      PP28382   9.739   4.803   2.378 -0.1338  0.1852 -0.3415
18279PP      PP28383  10.036   2.604   8.843 -0.0024  0.1358  0.0846
18280PP      PP28384   4.021   4.644  11.868  0.2578  0.1308  0.1875
18281PP      PP28385  12.221   4.177   9.540  0.3642 -0.0541 -0.0228
18282PP      PP28386  11.225  14.388   8.627 -0.3117 -0.1264 -0.1922
18283PP      PP28387   6.355   7.801   2.005  0.0800  0.0462  0.1117
18284PP      PP28388   3.175   2.394   4.370 -0.2504 -0.2619  0.0741
18285PP      PP28389  13.639  10.771   4.031 -0.1169 -0.0992 -0.4238
18286PP      PP28390   2.914  14.620  11.790  0.0432 -0.1361  0.0244
18287PP      PP28391   7.821   4.465   1.252 -0.2421  0.6468  0.1876
18288PP      PP28392   8.775   2.781  11.860 -0.0161  0.0784  0.0842
18289PP      PP28393   3.123  12.806  11.581  0.0184 -0.0825 -0.1381
18290PP      PP28394   5.916   3.552  12.549 -0.0444 -0.3148  0.0197
18291PP      PP28395  13.267   1.488   0.575 -0.0460 -0.0684 -0.1030
18292PP      PP28396  11.872   6.594   4.225 -0.2503 -0.3148 -0.0166
18293PP      PP28397  14.627  13.961   4.339  0.3609 -0.0387 -0.1103
18294PP      PP28398  11.425   7.066   0.803  0.1753  0.1193 -0.0804
18295PP      PP28399  14.650   0.586  10.033  0.1954  0.1524 -0.0409
18296PP      PP28400   3.756   0.174  13.083  0.1535  0.3152 -0.1528
18297PP      PP28401   5.654   9.409  12.552  0.0128  0.2538 -0.3215
18298PP      PP28402   1.662  11.548  12.653  0.0912 -0.2844  0.0493
18299PP      PP28403   1.473   6.999   3.493 -0.2578 -0.2203  0.2391
18300PP      PP28404   7.623   2.212   2.810  0.1833  0.2527  0.2273
18301PP      PP28405  12.493   6.280   1.826  0.0551 -0.1659  0.0192
18302PP      PP28406  10.335   8.222   2.181 -0.4132  0.2368  0.1405
18303PP      PP28407  13.567   0.245  13.063  0.1782  0.1477  0.1092
18304PP      PP28408  15.737   3.710  12.023 -0.2903 -0.1318  0.0343
18305PP      PP28409  11.070  14.624  11.611 -0.2021  0.1816 -0.1215
18306PP      PP28410   6.804  10.963   1.546 -0.3228 -0.0133 -0.0156
18307PP      PP28411   8.355   1.166   9.441  0.2463 -0.3717 -0.3103
18308PP      PP28412   6.004  12.636   0.006 -0.2935  0.2698 -0.2175
18309PP      PP28413  11.983  13.099  10.584  0.0598 -0.1546 -0.2516
18310PP      PP28414  15.304   5.770   1.323  0.2612 -0.0116 -0.2810
18311PP      PP28415  12.361  12.177   2.117  0.4295 -0.1588 -0.0636
18312PP      PP28416   2.769   0.281   8.976 -0.0259 -0.0968 -0.0611
18313PP      PP28417  11.807   1.888  12.578 -0.0504  0.1325 -0.0826
18314PP      PP28418   0.286   9.038   0.552 -0.2063 -0.1042  0.2988
18315PP      PP28419   3.496  11.302  12.040  0.0665  0.2138 -0.5467
18316PP      PP28420  11.344   3.905   2.893  0.0024 -0.0224 -0.0338
18317PP      PP28421   3.297   9.631   5.488  0.3010 -0.3205  0.0946
18318PP      PP28422   1.840  12.670   9.149  0.1606  0.1029  0.1043
18319PP      PP28423   0.526  10.659  12.379  0.1104  0.0912 -0.2462
18320PP      PP28424   8.260   4.054  12.827 -0.0266  0.2109  0.1217
18321PP      PP28425   5.326  14.969   0.514  0.1369 -0.1539 -0.1707
18322PP      PP28426   2.715   0.106  10.058 -0.0303  0.0549 -0.1235
18323PP      PP28427   5.441  11.806   2.474  0.0682  0.1710 -0.0025
18324PP      PP28428   8.574  10.858  12.849  0.1388 -0.2235 -0.0505
18325PP      PP28429   5.708  12.186   9.854  0.2194  0.0816 -0.1897
18326PP      PP28430   7.118   3.867   9.464 -0.3175 -0.0576 -0.1553
18327PP      PP28431  15.195  11.851   3.813  0.0455  0.0683  0.3460
18328PP      PP28432   9.104  11.018   2.857  0.1220 -0.0053 -0.2205
18329PP      PP28433   0.080  11.053   0.539 -0.0056  0.0048 -0.0116
18330PP      PP28434   3.338  14.355   1.881 -0.1616 -0.0544 -0.0126
18331PP      PP28435   6.546   3.978   1.553  0.0008  0.2766  0.0893
18332PP      PP28436  12.382  10.457   8.966  0.0693 -0.1220  0.0343
18333PP      PP28437   5.792   2.218  10.167 -0.3561 -0.0662 -0.2796
18334PP      PP28438   9.667  15.160   2.849  0.1886  0.0701 -0.0169
18335PP      PP28439   0.140   6.547  13.054  0.0208  0.1950 -0.0209
18336PP      PP28440   0.704   2.879   3.535 -0.1753  0.0321 -0.0594
18337PP      PP28441   9.631  14.067   4.233  0.1726 -0.2104  0.1690
18338PP      PP28442  10.414   6.457  10.488  0.1053  0.1201 -0.0511
18339PP      PP28443   6.552  14.360   2.457 -0.0734  0.0955 -0.1297
18340PP      PP28444   7.913  14.412   2.470  0.1262 -0.1687 -0.2096
18341PP      PP28445  10.557   2.707  10.484  0.1270  0.1063 -0.2286
18342PP      PP28446   3.272   6.476  13.147 -0.1175 -0.1541  0.0778
18343PP      PP28447   4.390  10.361  12.809 -0.2057  0.2606 -0.0720
18344PP      PP28448   6.231   6.056   3.856 -0.4128  0.1449  0.0784
18345PP      PP28449   1.331   8.868   4.196 -0.3461  0.0269  0.1067
18346PP      PP28450   3.364   4.500   3.590 -0.0394 -0.1449  0.0770
18347PP      PP28451   3.611  12.495  11.680  0.1685  0.1883  0.1163
18348PP      PP28452  12.321   7.756   2.601  0.2525  0.2235 -0.1515
18349PP      PP28453  10.897   8.551   1.663 -0.1078 -0.1245  0.2454
18350PP      PP28454   2.084  12.933   2.055  0.0816  0.0440  0.3688
18351PP      PP28455   5.442   1.187  12.638 -0.0080  0.0258 -0.0609
18352PP      PP28456   1.776   5.583   1.180  0.0920 -0.1653 -0.1290
18353PP      PP28457   9.473  13.159  11.723 -0.0888  0.0064 -0.0479
18354PP      PP28458   3.261  13.636   9.631 -0.3108 -0.0963 -0.1875
18355PP      PP28459  14.698   0.283  11.136 -0.1371  0.0520 -0.0068
18356PP      PP28460  11.934   3.077  10.700  0.1057 -0.2317  0.4137
18357PP      PP28461   1.466  11.030   3.819 -0.1025 -0.2842  0.2047
18358PP      PP28462   8.004   1.613  12.819 -0.4272 -0.0011 -0.0865
18359PP      PP28463   1.157  12.721   9.289  0.0572 -0.2623  0.1210
18360PP      PP28464   7.876  10.382   9.751  0.1128 -0.0339 -0.1263
18361PP      PP28465  13.722   7.595   2.017  0.3078  0.0902 -0.1859
18362PP      PP28466  13.550  15.440   2.659 -0.2640  0.0507  0.2055
18363PP      PP28467  15.513  10.157  13.224 -0.2805  0.0181  0.3518
18364PP      PP28468  13.650  12.385  10.214 -0.1178  0.1630 -0.1256
18365PP      PP28469  15.710   3.153   0.908  0.1034  0.3722 -0.1250
18366PP      PP28470   4.941   1.714  12.557  0.3086 -0.4837 -0.2632
18367PP      PP28471   8.396  15.809  13.211  0.2188 -0.3910  0.2131
18368PP      PP28472   2.899  10.819   4.776 -0.1227 -0.1727 -0.0193
18369PP      PP28473   2.052  12.858  10.079  0.2967 -0.1878  0.1776
18370PP      PP28474  11.520  14.744  12.755 -0.2017  0.0494  0.0358
18371PP      PP28475   2.796   5.825  12.282 -0.1091 -0.3295  0.0265
18372PP      PP28476   8.283   3.104  11.722 -0.0199  0.1287 -0.0024
18373PP      PP28477   1.734   3.386   8.856  0.2589  0.1759  0.1323
18374PP      PP28478   9.892  13.062   4.261 -0.1343 -0.1449 -0.2278
18375PP      PP28479  15.758   7.830   4.430 -0.3667  0.0281  0.1585
18376PP      PP28480   9.818  10.210   9.495  0.0044 -0.0613  0.1378
18377PP      PP28481   9.822   0.240  11.734 -0.0679 -0.2342 -0.0923
18378PP      PP28482   5.955   6.653  10.381 -0.1545 -0.2520  0.3030
18379PP      PP28483   7.908   8.416   0.549  0.0255 -0.2506  0.1530
18380PP      PP28484   9.750   3.677  12.372  0.3532 -0.2233  0.1463
18381PP      PP28485  14.835  10.694  10.215  0.0410  0.2290  0.1779
18382PP      PP28486  14.908   5.872   4.187 -0.1248  0.1749 -0.2106
18383PP      PP28487   7.009  15.570   1.278  0.0052  0.2193 -0.2776
18384PP      PP28488   4.752  11.174  10.059  0.1306  0.0477  0.3757
18385PP      PP28489  14.949  12.794  10.223  0.0149 -0.3386 -0.1229
18386PP      PP28490   9.477   0.646  12.889 -0.2154  0.2236  0.2256
18387PP      PP28491   9.297   3.284   9.655 -0.4312 -0.3820  0.1560
18388PP      PP28492  13.347   3.982   9.056  0.2902 -0.2886 -0.1479
18389PP      PP28493  11.001   3.305  11.151  0.0017  0.1333  0.1342
18390PP      PP28494   6.260  14.256   4.465  0.2336  0.4679 -0.0407
18391PP      PP28495   9.716  13.472   3.480 -0.1189  0.3721  0.1555
18392PP      PP28496   7.204   0.582   4.059  0.1572  0.0297  0.0251
18393PP      PP28497   2.003   4.303   1.289  0.1926  0.2073 -0.3634
18394PP      PP28498  12.979  10.102   9.635 -0.0651 -0.3116 -0.2230
18395PP      PP28499  10.475   3.819  12.087 -0.4018 -0.0134 -0.1087
18396PP      PP28500  14.357  15.001  10.382  0.1406 -0.0596  0.2606
18397PP      PP28501   9.238   9.309   3.241  0.2128  0.2937  0.1148
18398PP      PP28502   7.462   3.182   2.981  0.0818 -0.3703  0.1928
18399PP      PP28503  10.121   7.791  11.201 -0.1988 -0.1245 -0.0267
18400PP      PP28504   6.567   5.903   9.100 -0.2345  0.4826 -0.0251
18401PP      PP28505   8.853  10.885   3.361  0.0119 -0.2289 -0.1228
18402PP      PP28506  13.775   3.406   3.352 -0.1930  0.2658 -0.3347
18403PP      PP28507  15.002   2.476   3.416 -0.2439  0.3521 -0.1599
18404PP      PP28508   4.740  13.123   0.620  0.2484  0.1722 -0.0752
18405PP      PP28509   0.938   1.701   4.109 -0.0861 -0.1216  0.1004
18406PP      PP28510  11.980   7.278   3.309  0.2579 -0.0327 -0.1886
18407PP      PP28511   3.749   8.585  11.823  0.2153  0.4516  0.0442
18408PP      PP28512   5.743  13.180   4.514 -0.0451  0.3113  0.2083
18409PP      PP28513  14.634  14.660   3.891 -0.4008  0.1939  0.2305
18410PP      PP28514  14.232   1.191   2.715 -0.2453  0.0271 -0.1594
18411PP      PP28515  11.117  11.542  13.351 -0.1536 -0.4488 -0.3460
18412PP      PP28516   1.348   5.672   4.243  0.0201  0.1003 -0.1987
18413PP      PP28517  12.028   9.399   9.262  0.2255  0.0814  0.0508
18414PP      PP28518   1.435  14.641  12.470 -0.2127  0.0916 -0.3451
18415PP      PP28519  15.397   4.572  11.433  0.1894  0.3675 -0.2493
18416PP      PP28520   2.981   1.562  11.082 -0.1799  0.3420  0.0305
18417PP      PP28521   7.527   4.975   9.758  0.0997  0.1900  0.1134
18418PP      PP28522   3.547   7.364  13.248  0.0349 -0.0754 -0.1901
18419PP      PP28523  14.430   9.009   2.806  0.3366 -0.1619 -0.2001
18420PP      PP28524  13.721   2.527  10.239 -0.4220 -0.0443 -0.0225
18421PP      PP28525   7.667   4.943   2.804  0.2343 -0.2087  0.0753
18422PP      PP28526  10.163  13.459  12.362  0.3228  0.0685 -0.1201
18423PP      PP28527   9.239   3.956   8.685 -0.1244 -0.0257 -0.0259
18424PP      PP28528  12.008  14.881   1.002  0.1091 -0.1966  0.0668
18425PP      PP28529   2.153   3.517   0.012  0.1352 -0.2852 -0.0618
18426PP      PP28530  13.952   1.484   3.056  0.2029 -0.1504  0.2804
18427PP      PP28531   5.489   8.550   1.640 -0.3293  0.2255 -0.3982
18428PP      PP28532  10.328  10.207  10.117 -0.1483 -0.0667  0.1179
18429PP      PP28533   7.268  14.493   9.616 -0.2207  0.0561  0.0823
18430PP      PP28534  13.826  10.934   9.819 -0.0759  0.0460 -0.0117
18431PP      PP28535  15.498   7.929  13.390  0.0349  0.0378 -0.0762
18432PP      PP28536  15.167   6.385   9.650  0.2126 -0.0160  0.2701
18433PP      PP28537   1.761   5.290   0.011 -0.1513 -0.3411  0.0592
18434PP      PP28538   7.342  12.070  12.531  0.1630 -0.0587 -0.0934
18435PP      PP28539   2.135  10.216   3.702 -0.3371 -0.0591 -0.1349
18436PP      PP28540   7.307   7.072   9.638  0.2230 -0.2888  0.2020
18437PP      PP28541  13.564  12.126   2.963 -0.1063 -0.0200  0.1293
18438PP      PP28542   3.585   3.319   1.677 -0.3971  0.2670 -0.2708
18439PP      PP28543   7.378   7.767   2.684  0.0240  0.2477  0.0800
18440PP      PP28544   2.272   8.707  13.247  0.1485 -0.1501  0.2970
18441PP      PP28545   0.659   5.371  10.682  0.1675  0.1728  0.1739
18442PP      PP28546  15.658  15.486  12.866  0.2268  0.1831  0.0842
18443PP      PP28547   9.966   3.591  11.364 -0.1310  0.0776  0.0292
18444PP      PP28548   7.308   9.845   4.767 -0.0907  0.1151 -0.1398
18445PP      PP28549   4.017   3.289  10.124 -0.1816  0.0861  0.2709
18446PP      PP28550   5.000  13.113  12.059 -0.0570  0.1375 -0.0610
18447PP      PP28551   5.045   8.027   2.993 -0.0328 -0.0526  0.3192
18448PP      PP28552  12.871   9.015   2.989  0.2786 -0.0958  0.1039
18449PP      PP28553   7.119   9.159  12.725 -0.2256 -0.2868  0.3684
18450PP      PP28554  10.318  11.525  12.955  0.4895  0.2186  0.0539
18451PP      PP28555   9.469   8.052   4.298 -0.0629 -0.3728  0.0892
18452PP      PP28556   8.927   7.775  10.152 -0.3031 -0.3359 -0.2633
18453PP      PP28557  11.564   2.676   9.149 -0.1437  0.0466 -0.1126
18454PP      PP28558   1.523   9.874   1.189  0.0611 -0.1696 -0.0071
18455PP      PP28559  10.870  14.270  12.907 -0.0600  0.1787 -0.1758
18456PP      PP28560   7.016   9.645   4.304  0.2491  0.1845  0.2226
18457PP      PP28561   0.394  15.313  12.934  0.0083  0.2075  0.2370
18458PP      PP28562   4.374   5.857   0.355  0.0127 -0.4316  0.1322
18459PP      PP28563   6.688   1.431   1.628  0.1168 -0.1142 -0.1825
18460PP      PP28564   2.407  15.239   4.166  0.3290  0.2442 -0.0740
18461PP      PP28565   7.266  13.422   4.280  0.1061 -0.2950  0.0784
18462PP      PP28566   3.998   7.548   5.412  0.0175  0.1545 -0.0146
18463PP      PP28567  11.484  10.697   9.462 -0.1613  0.1808  0.0295
18464PP      PP28568   4.287   6.245  11.361 -0.1664 -0.1495 -0.0789
18465PP      PP28569  10.262   5.200  12.853  0.0242 -0.3222 -0.1031
18466PP      PP28570  11.126   1.619  11.713  0.0170  0.1852 -0.2047
18467PP      PP28571   6.216   3.246   9.193 -0.1608 -0.2098 -0.0220
18468PP      PP28572   4.830   9.128  11.477  0.2450  0.0148 -0.0664
18469PP      PP28573   0.291   0.723  13.177 -0.0556  0.0305 -0.0358
18470PP      PP28574   8.388  13.324  12.575 -0.0612  0.2588 -0.2738
18471PP      PP28575  12.012   9.473   1.308  0.0546  0.0758  0.3435
18472PP      PP28576  12.339  12.610   2.348 -0.1570  0.0811  0.3367
18473PP      PP28577  13.999  12.328   2.742  0.1945 -0.4982  0.0517
18474PP      PP28578   4.417   8.350   9.950  0.1069 -0.2496 -0.0635
18475PP      PP28579  14.306   3.155   2.316  0.2300  0.1258 -0.0497
18476PP      PP28580   9.197  15.759   1.572  0.0847  0.2327 -0.1260
18477PP      PP28581   0.172   9.318  11.749  0.0948 -0.0040 -0.0104
18478PP      PP28582   3.649   0.710   0.041  0.4529  0.1432 -0.1711
18479PP      PP28583   6.388   1.764  10.146 -0.2000  0.0609  0.0055
18480PP      PP28584   1.476   0.794  11.625  0.0022  0.0737 -0.0739
18481PP      PP28585  10.685  10.582   1.781 -0.1981  0.2486 -0.3843
18482PP      PP28586  11.194   8.890   9.088  0.4391 -0.0515 -0.0485
18483PP      PP28587   4.645  10.668   2.602  0.0486 -0.1002 -0.0735
18484PP      PP28588   7.912  11.398   4.253  0.2831 -0.1496 -0.1133
18485PP      PP28589  14.356   8.205   5.032  0.1586 -0.1051  0.0144
18486PP      PP28590  15.370   9.909   2.074  0.1030  0.0527 -0.1714
18487PP      PP28591  15.307   6.669   0.075 -0.1158  0.0884 -0.0686
18488PP      PP28592  11.713   6.963   2.577  0.2070 -0.1597 -0.0678
18489PP      PP28593   1.240   5.263  13.282 -0.0690 -0.0552 -0.0302
18490PP      PP28594  15.399   3.231  10.136 -0.0544  0.4091  0.4488
18491PP      PP28595  13.263  14.745  12.649 -0.2506 -0.1081 -0.2192
18492PP      PP28596  11.499   8.347   1.214  0.2848  0.1036  0.1050
18493PP      PP28597  13.892   6.490  11.884  0.1582 -0.2310 -0.0593
18494PP      PP28598  11.776  10.286   2.022  0.1913  0.0153 -0.1078
18495PP      PP28599   8.878   4.776  13.166  0.1924 -0.2432 -0.0511
18496PP      PP28600   3.939   8.625  13.302  0.1995 -0.0159  0.0687
18497PP      PP28601  14.293  10.365  11.500  0.0489  0.0648 -0.1519
18498PP      PP28602  10.200   7.127  12.976 -0.0026 -0.1667 -0.0486
18499PP      PP28603  10.871  12.761   9.261 -0.3070 -0.0131  0.0722
18500PP      PP28604   9.092   5.801  12.789 -0.1063  0.0166 -0.0884
18501PP      PP28605  15.490   4.584  11.941 -0.0779  0.2721 -0.1136
18502PP      PP28606  10.765  15.146   0.445  0.2936 -0.1645 -0.1877
18503PP      PP28607  11.471   2.653  13.065  0.2586 -0.0826  0.0546
18504PP      PP28608   8.935   3.679   9.815  0.1522 -0.0989 -0.1059
18505PP      PP28609   2.675  11.873   4.152  0.0095  0.0911 -0.1967
18506PP      PP28610   7.862  11.791   2.418 -0.0350 -0.1640  0.1604
18507PP      PP28611   8.817   7.482  10.557 -0.4973  0.2625  0.3150
18508PP      PP28612  14.808   6.660  12.692 -0.2366  0.0635 -0.0761
18509PP      PP28613   6.336  12.117   0.377  0.2878 -0.2326 -0.1614
18510PP      PP28614   9.308   5.318  12.483  0.0337  0.1961  0.0552
18511PP      PP28615  14.913   3.306   2.482  0.2065 -0.0512 -0.0435
18512PP      PP28616  13.587  14.349  10.463  0.1167  0.1798  0.0462
18513PP      PP28617   6.048   5.804   2.941  0.1438 -0.0503 -0.0786
18514PP      PP28618  13.583  12.621  12.820  0.2340  0.0399  0.0617
18515PP      PP28619   9.586   6.560  10.797 -0.0736 -0.3254  0.3932
18516PP      PP28620   6.236   0.561   9.739 -0.0613  0.1305 -0.0927
18517PP      PP28621   0.130   0.456  10.768 -0.2212 -0.2859  0.0062
18518PP      PP28622   2.386   7.854   9.587 -0.2618 -0.0065  0.3228
18519PP      PP28623   9.194  15.765   0.180  0.0284  0.0646 -0.0136
18520PP      PP28624   6.990  10.651   1.218 -0.1179 -0.0207 -0.0803
18521PP      PP28625  13.605   6.092  12.033  0.0461  0.1617 -0.1156
18522PP      PP28626  15.025   3.230   0.379  0.1422  0.1670 -0.0882
18523PP      PP28627   4.793   5.193  11.444  0.0675  0.4247  0.0563
18524PP      PP28628   1.996  10.233   2.339  0.1895  0.2443  0.3345
18525PP      PP28629  11.660   9.639   3.281  0.0628  0.0715 -0.2071
18526PP      PP28630   7.265  11.848   3.739  0.1556 -0.0066  0.2544
18527PP      PP28631   1.959  10.326  12.763 -0.0899 -0.0599  0.0129
18528PP      PP28632  11.779  14.934  10.338 -0.3450 -0.0645  0.0870
18529PP      PP28633  14.942   0.622   2.615 -0.2022  0.0925 -0.0657
18530PP      PP28634   5.241   7.679  11.934  0.0721  0.0932 -0.1275
18531PP      PP28635   4.728  11.128   0.504 -0.1519  0.1237 -0.3147
18532PP      PP28636   9.463  13.077   0.066 -0.0163 -0.3032 -0.0776
18533PP      PP28637  15.409  10.122   3.749  0.2951  0.0298  0.3189
18534PP      PP28638   3.195  14.413   2.783 -0.1470  0.1809 -0.5019
18535PP      PP28639  14.326   6.360   0.846 -0.0629  0.3908  0.0795
18536PP      PP28640  15.398  10.885   0.606  0.0985 -0.3129 -0.0777
18537PP      PP28641   3.293  14.947  11.687  0.0903 -0.0644  0.1960
18538PP      PP28642   9.736  12.251   8.580 -0.0675 -0.2241  0.0890
18539PP      PP28643   0.681  15.549   3.040  0.2678  0.0488  0.2198
18540PP      PP28644   2.622  12.961   8.774 -0.3508  0.1178 -0.1589
18541PP      PP28645  10.963  10.582   0.901  0.0503  0.0867 -0.0494
18542PP      PP28646  15.614   6.970   0.466 -0.1491 -0.0654  0.4553
18543PP      PP28647   9.011  11.884  10.748 -0.3382  0.0072  0.3301
18544PP      PP28648   8.226  10.587   9.494  0.3279  0.0878 -0.0913
18545PP      PP28649   2.982   8.667   3.940  0.1583 -0.0203  0.2651
18546PP      PP28650  15.288  12.563  13.107  0.3082  0.1493  0.1965
18547PP      PP28651  11.441  15.539  11.885  0.1340  0.0784  0.1043
18548PP      PP28652   0.161   1.358   0.685  0.2572 -0.3448  0.1616
18549PP      PP28653   5.430   6.297   9.727  0.1476 -0.2235 -0.0698
18550PP      PP28654   8.640   2.685  10.607  0.3865 -0.0394  0.0309
18551PP      PP28655   8.645  12.577  10.754 -0.2376  0.0654 -0.0327
18552PP      PP28656  15.890   6.950   0.909  0.1880  0.1510  0.0934
18553PP      PP28657   5.813   5.709   9.338  0.1618  0.2498  0.1701
18554PP      PP28658  11.134   0.056  11.353  0.3730  0.3569 -0.0378
18555PP      PP28659   8.073   6.449  11.354 -0.2227  0.0081 -0.0043
18556PP      PP28660  15.334   7.860   3.678  0.1837  0.1601  0.1082
18557PP      PP28661   1.215  11.666   1.660  0.4535 -0.2473  0.0874
18558PP      PP28662   0.522  15.019   4.350  0.3231 -0.2086  0.0415
18559PP      PP28663   6.996  13.769   3.529 -0.2239  0.1489  0.0651
18560PP      PP28664   4.945  12.859   3.697  0.0676 -0.0216 -0.1607
18561PP      PP28665   1.510   6.759   0.548  0.0769 -0.0527 -0.2218
18562PP      PP28666   0.827  10.709  10.493  0.0542  0.0428  0.0612
18563PP      PP28667   5.856   7.633  12.227 -0.0028  0.2508 -0.2284
18564PP      PP28668   7.565   9.845  11.557  0.0624  0.0092  0.2993
18565PP      PP28669  11.816   2.368   0.969  0.0961  0.2149  0.0811
18566PP      PP28670  13.363   5.418   1.377 -0.2494  0.0573 -0.0488
18567PP      PP28671  15.501  14.491   4.268 -0.1777 -0.1592  0.1027
18568PP      PP28672   9.773   0.085   2.342 -0.2684  0.2568 -0.0348
18569PP      PP28673  14.251  15.381   2.980 -0.1651 -0.4076  0.0130
18570PP      PP28674   4.441   7.472   3.754 -0.4000  0.0140  0.0526
18571PP      PP28675   8.521   5.700   9.128 -0.0028 -0.0855 -0.2366
18572PP      PP28676  15.248   5.864   9.584  0.2552  0.1428 -0.0376
18573PP      PP28677  15.730  12.613   9.537 -0.4228  0.2149  0.1561
18574PP      PP28678   0.535  13.325  12.025 -0.1187 -0.0937  0.1762
18575PP      PP28679  11.128   6.210   0.082 -0.1117 -0.5831  0.2572
18576PP      PP28680   3.860   8.392  10.127  0.0107 -0.0709  0.0661
18577PP      PP28681  14.920   8.866   0.369 -0.0331 -0.1313  0.1742
18578PP      PP28682   8.999   9.284   1.343  0.0739 -0.2953 -0.3806
18579PP      PP28683   3.520   3.621  13.435 -0.2084  0.1340  0.0723
18580PP      PP28684   1.011   5.213  10.228  0.0621  0.1653 -0.0462
18581PP      PP28685   0.425   2.383   9.588 -0.1794 -0.4636 -0.0832
18582PP      PP28686  11.685   0.213  12.385  0.3605 -0.0545 -0.1180
18583PP      PP28687  12.703   0.112  10.096  0.1592 -0.0229  0.2101
18584PP      PP28688  15.591   8.365   3.648 -0.0021 -0.1257  0.1212
18585PP      PP28689   7.840   8.920   5.326  0.1171  0.1816  0.2888
18586PP      PP28690   9.262   8.049   9.928 -0.0272  0.0128  0.3718
18587PP      PP28691  14.695  11.714   3.968  0.6406 -0.0327 -0.1067
18588PP      PP28692   8.820   5.796   2.689  0.4124  0.2630 -0.2816
18589PP      PP28693   7.233  13.686   2.949 -0.0497  0.0148 -0.2277
18590PP      PP28694   6.068  15.054   3.692  0.1897 -0.1699  0.2939
18591PP      PP28695   9.336   6.343  11.969  0.0323  0.1141  0.3414
18592PP      PP28696   5.211  10.732  10.633  0.2268  0.0535 -0.2620
18593PP      PP28697   9.854  14.635   8.775 -0.3178 -0.1064 -0.2049
18594PP      PP28698  13.544   2.349   3.219 -0.1781 -0.1796  0.0577
18595PP      PP28699  15.009  12.062  10.859  0.2692 -0.3159  0.2630
18596PP      PP28700   8.096   9.531   3.196 -0.0185 -0.0309 -0.2845
18597PP      PP28701  14.276  12.824  11.429  0.0464 -0.0629 -0.4354
18598PP      PP28702  13.470   6.955   2.227  0.2058 -0.1037  0.0038
18599PP      PP28703   6.573   2.048  11.452  0.0151  0.1596  0.1344
18600PP      PP28704  14.489  14.627  11.332  0.2663  0.3059 -0.1271
18601PP      PP28705  13.876   8.012   3.436 -0.1491 -0.1642 -0.2355
18602PP      PP28706  15.464   0.309   2.712 -0.2521  0.1491 -0.0139
18603PP      PP28707   9.099   9.688   9.708 -0.1831  0.2184 -0.2257
18604PP      PP28708  15.798  11.504   1.774  0.2738  0.0299 -0.1435
18605PP      PP28709  11.053  14.436  10.795 -0.0764 -0.1577  0.2490
18606PP      PP28710  12.692  15.016   2.225 -0.0341  0.1749  0.3304
18607PP      PP28711  13.899   2.893   3.649  0.0779 -0.1044  0.0888
18608PP      PP28712  12.552   9.006  12.768 -0.1700 -0.0690 -0.0890
18609PP      PP28713   3.827  10.290   2.550  0.3343  0.4411 -0.1674
18610PP      PP28714   9.716   5.325  12.882  0.0141  0.1880 -0.2660
18611PP      PP28715   3.791   4.984   0.504  0.1102 -0.4240 -0.1375
18612PP      PP28716   9.511  11.778  12.278 -0.6423  0.0514 -0.0182
18613PP      PP28717  10.805   0.295   2.229  0.1394 -0.0809 -0.1550
18614PP      PP28718   1.109  11.822  11.772  0.0764  0.1119  0.4070
18615PP      PP28719   0.159  15.202   4.067 -0.0897 -0.0757 -0.1588
18616PP      PP28720   6.769   5.302  12.680 -0.1313 -0.0225  0.1580
18617PP      PP28721  10.884  11.289   3.442  0.2995  0.1498  0.0691
18618PP      PP28722  12.326   7.319   1.233  0.2430 -0.0766  0.1824
18619PP      PP28723   0.459   6.849  12.734 -0.1008 -0.2320 -0.3435
18620PP      PP28724   5.812  14.432   2.577 -0.2998 -0.3406  0.3268
18621PP      PP28725  13.962  12.802   2.026 -0.1878 -0.1644  0.5167
18622PP      PP28726  13.322   7.653  11.730  0.0846 -0.2443  0.2469
18623PP      PP28727   7.506   8.682   4.007 -0.0343  0.0732  0.4805
18624PP      PP28728   5.273   9.260   3.766 -0.2763  0.3459 -0.0626
18625PP      PP28729   2.409   6.824  12.608 -0.2586 -0.1757 -0.2296
18626PP      PP28730   9.883   0.548   3.640 -0.1454 -0.0177  0.0935
18627PP      PP28731  10.097   4.235   2.650 -0.3083  0.0327  0.1526
18628PP      PP28732   3.892   7.531   3.964  0.3640  0.2546  0.1282
18629PP      PP28733  12.130  10.719   1.931  0.2986  0.1379  0.0804
18630PP      PP28734  13.813  14.057   3.432  0.1288  0.1312  0.2276
18631PP      PP28735   4.038   7.860  10.035  0.1744 -0.1445 -0.2312
18632PP      PP28736   7.275  12.270   0.431  0.3212 -0.2155  0.0628
18633PP      PP28737   0.223   8.860  11.502  0.1674 -0.0768  0.0331
18634PP      PP28738   6.755  11.347  12.046 -0.4099 -0.1133  0.1603
18635PP      PP28739   3.660  13.964   5.101 -0.0574 -0.2026  0.2765
18636PP      PP28740   5.199   1.294   4.010 -0.0878 -0.3132  0.1565
18637PP      PP28741  15.535  13.934  10.942 -0.2213 -0.1518  0.1168
18638PP      PP28742  13.818   8.948   1.599 -0.1001 -0.1083 -0.0132
18639PP      PP28743   6.967  13.677   2.087 -0.1404  0.1822 -0.0186
18640PP      PP28744   8.474   4.148  12.341  0.0096 -0.1411 -0.3145
18641PP      PP28745  15.203  10.676   0.988  0.0157  0.3400 -0.0576
18642PP      PP28746  10.316  10.732  11.067 -0.0464 -0.4816 -0.1392
18643PP      PP28747  11.355   8.517  11.095  0.4125 -0.0508 -0.2516
18644PP      PP28748   2.337   6.745  12.020 -0.1233  0.2308  0.2237
18645PP      PP28749   0.525   7.003   4.891 -0.0737  0.1027 -0.1299
18646PP      PP28750  15.037  15.407   1.576  0.0915  0.2061  0.0362
18647PP      PP28751   7.358  11.361  11.327  0.1592  0.3491 -0.1253
18648PP      PP28752   9.140  15.305   2.546 -0.1129 -0.1886 -0.2494
18649PP      PP28753   8.574  13.958   9.465 -0.1007 -0.2159 -0.3769
18650PP      PP28754  15.412   2.934   0.377  0.1018  0.0420 -0.0387
18651PP      PP28755  13.171   8.222  11.893 -0.0471 -0.1628 -0.0429
18652PP      PP28756   0.333  14.678   1.847  0.1024 -0.2485 -0.3196
18653PP      PP28757   0.111  15.349   2.406  0.1577  0.1139 -0.0505
18654PP      PP28758   0.312   8.248   3.776  0.4189 -0.0185 -0.0499
18655PP      PP28759   3.786  13.896   9.846 -0.0134 -0.2628 -0.1113
18656PP      PP28760  10.203   9.034   3.052 -0.0160 -0.1068  0.1249
18657PP      PP28761   1.111   9.922   0.819 -0.0383 -0.2507  0.2616
18658PP      PP28762   4.668   5.974  12.544  0.1830  0.2373  0.0264
18659PP      PP28763   7.807   8.938   0.457  0.1832  0.2552 -0.0879
18660PP      PP28764  11.726   8.816   2.001 -0.1808 -0.3008  0.1394
18661PP      PP28765   6.024   4.703   1.401 -0.1725 -0.1130 -0.0508
18662PP      PP28766   8.252   8.360   3.978  0.2240 -0.2458  0.0758
18663PP      PP28767   6.268  12.549   1.164 -0.1043 -0.0254  0.1515
18664PP      PP28768  14.145  12.449  10.081  0.2865 -0.0363  0.0199
18665PP      PP28769   3.681   5.052  11.800 -0.1259 -0.2071  0.1832
18666PP      PP28770   2.266   2.804   0.549  0.0766 -0.0506  0.0815
18667PP      PP28771  11.275  15.770   1.580  0.1955  0.0674  0.2238
18668PP      PP28772  15.282  15.049  13.004  0.0599  0.0915  0.1764
18669PP      PP28773   9.251  14.890  13.432 -0.1820  0.1277  0.2314
18670PP      PP28774  14.186   0.997   0.584 -0.0784 -0.1661  0.0265
18671PP      PP28775   2.672   5.355   1.902  0.0165  0.0299  0.1772
18672PP      PP28776   4.424   4.824   9.933 -0.0894  0.0631 -0.2521
18673PP      PP28777   0.870   4.830   3.145 -0.1042  0.3571  0.0888
18674PP      PP28778   9.584   7.176   3.864 -0.2994 -0.0231 -0.2059
18675PP      PP28779   2.395  14.347   0.332  0.2760  0.2392 -0.0315
18676PP      PP28780   7.490  11.040   2.103  0.2974  0.0221  0.2223
18677PP      PP28781   4.068   9.744   0.944  0.0172  0.4781 -0.1479
18678PP      PP28782   6.564  13.109  11.307  0.1800  0.1161  0.0250
18679PP      PP28783   4.884  15.718   9.789 -0.1786 -0.3036 -0.0796
18680PP      PP28784  14.335   6.841   2.925 -0.1352  0.0231 -0.0352
18681PP      PP28785  13.659   9.288   1.241 -0.2220 -0.0189 -0.1146
18682PP      PP28786   6.779  15.263   0.923  0.0810 -0.2379  0.2705
18683PP      PP28787   9.611   7.779  11.370  0.2789  0.0071 -0.2804
18684PP      PP28788   5.397   0.589   0.003  0.0791 -0.0275  0.3281
18685PP      PP28789   9.461  10.501   1.990  0.0185  0.0439  0.0335
18686PP      PP28790   5.482   2.748   8.894  0.1780 -0.2824 -0.1064
18687PP      PP28791  10.093  10.797  13.342 -0.0454 -0.2113  0.2351
18688PP      PP28792   7.640   2.524  11.404  0.0159 -0.0589 -0.0222
18689PP      PP28793   2.484   7.365   4.917 -0.3057 -0.0641  0.0076
18690PP      PP28794  13.683   6.961   0.408  0.0599 -0.1449  0.0074
18691PP      PP28795   5.504  14.844   3.585  0.1305  0.0887 -0.1379
18692PP      PP28796   9.175  13.194   2.244 -0.1093 -0.0179  0.2155
18693PP      PP28797   2.865  10.919  11.464  0.1484 -0.0982 -0.2106
18694PP      PP28798   6.461   8.496  11.281 -0.4854 -0.0130  0.0132
18695PP      PP28799   6.766  12.298   3.309 -0.0462  0.0285 -0.3134
18696PP      PP28800   5.512  13.981   1.025  0.6049 -0.0803  0.0242
18697PP      PP28801  10.009  12.420  12.541 -0.2682  0.1606  0.0664
18698PP      PP28802   7.994  13.080   1.920  0.4231 -0.2941  0.3127
18699PP      PP28803   7.507   2.580   9.853 -0.0548  0.3525  0.1592
18700PP      PP28804  11.242  12.071   2.882  0.1720 -0.0033  0.1538
18701PP      PP28805  12.089  15.517  13.227  0.0006 -0.0336 -0.2694
18702PP      PP28806   2.679   9.658   3.319 -0.0607 -0.1778 -0.0924
18703PP      PP28807   9.126   2.501   0.237 -0.1321  0.0720  0.2048
18704PP      PP28808   6.769  11.030   4.361  0.2874 -0.1459  0.2282
18705PP      PP28809   3.393   9.343   4.683 -0.2427 -0.0369 -0.3186
18706PP      PP28810  12.403   1.574   0.193 -0.0645 -0.0421  0.1956
18707PP      PP28811   9.604   5.830   3.125  0.1556  0.0409  0.1474
18708PP      PP28812  10.626   1.153   1.992 -0.1629 -0.2194  0.4280
18709PP      PP28813   0.381  13.660   9.813 -0.2973 -0.2445 -0.0703
18710PP      PP28814  14.226   2.849   4.599  0.1942  0.0812  0.0148
18711PP      PP28815   6.786   2.446   2.376  0.0730  0.1159 -0.2756
18712PP      PP28816  13.840  10.198  11.738 -0.2445  0.1984 -0.0004
18713PP      PP28817   1.589  12.298  12.216 -0.1023  0.2088  0.1201
18714PP      PP28818   0.494  14.385  11.016  0.1048 -0.0383 -0.0174
18715PP      PP28819  10.314  11.320  11.099  0.1753  0.1941  0.0731
18716PP      PP28820   3.399   6.966  11.432 -0.0412 -0.1883 -0.0888
18717PP      PP28821   1.459   6.257  11.026 -0.0760  0.1233 -0.2293
18718PP      PP28822  10.551  14.680  11.641 -0.1078  0.1461  0.2387
18719PP      PP28823  14.523   3.452   4.780 -0.0669 -0.0229  0.2924
18720PP      PP28824   3.715   9.002   4.958 -0.1000  0.1186  0.1623
18721PP      PP28825  15.327  10.752  10.513 -0.2554 -0.0594  0.1278
18722PP      PP28826   3.425   8.323  13.215  0.0355 -0.0359 -0.1290
18723PP      PP28827   8.004  12.676  11.472 -0.3678  0.2480  0.1790
18724PP      PP28828   3.362  10.167   3.170  0.0482  0.0737 -0.0048
18725PP      PP28829   2.946   3.029  10.096  0.2328 -0.3253  0.0825
18726PP      PP28830   6.695   3.484   8.784 -0.4149 -0.3186 -0.0168
18727PP      PP28831  14.496   7.906  12.517  0.0544  0.0878  0.2772
18728PP      PP28832   6.402  13.827  13.090 -0.1608 -0.0678 -0.0184
18729PP      PP28833   0.757   9.601   2.738  0.1566 -0.1793 -0.1037
18730PP      PP28834   4.809   0.328   3.753 -0.1219  0.1367 -0.0531
18731PP      PP28835  14.077   0.870   3.107 -0.1403  0.0856  0.1174
18732PP      PP28836  11.791  14.256   9.240 -0.1341  0.0265 -0.3237
18733PP      PP28837  15.321  10.587  11.919 -0.0374 -0.1404 -0.0239
18734PP      PP28838   4.174   5.361   2.234  0.0596 -0.2783  0.0288
18735PP      PP28839   5.896   2.097  10.622 -0.1076  0.3091  0.0903
18736PP      PP28840  14.788   9.421   0.105 -0.3396 -0.4530 -0.1083
18737PP      PP28841  11.117   6.937   3.477 -0.0231  0.3102 -0.1089
18738PP      PP28842   0.214  15.820   2.514 -0.1651 -0.3115 -0.1050
18739PP      PP28843  13.908  14.968   1.506  0.0897 -0.0838  0.2511
18740PP      PP28844   0.584  10.817   4.708 -0.2685  0.2031  0.0953
18741PP      PP28845   1.615   9.015   0.769 -0.0230 -0.1124  0.0795
18742PP      PP28846   3.836   3.085   0.710 -0.1300  0.1732 -0.0543
18743PP      PP28847  15.352   8.596  10.665 -0.0480  0.1965 -0.3618
18744PP      PP28848  10.979   7.666   9.480 -0.2151 -0.0689  0.1303
18745PP      PP28849   7.290   9.876   1.973 -0.1365  0.3336  0.1973
18746PP      PP28850  15.041   6.007  12.073  0.2820 -0.1053 -0.0380
18747PP      PP28851   3.158  11.365  11.605  0.1603  0.1212  0.2522
18748PP      PP28852   9.412   2.490   1.207  0.1872  0.1727  0.1145
18749PP      PP28853  13.898   5.825  12.991  0.0564 -0.2524 -0.1464
18750PP      PP28854   2.290   4.161   3.826  0.0500  0.0184 -0.0767
18751PP      PP28855   5.814  12.378   1.118 -0.2104 -0.2899 -0.0753
18752PP      PP28856  15.460   7.417   9.780 -0.0129 -0.0982  0.1149
18753PP      PP28857   1.727   7.012   3.000 -0.1092 -0.1191 -0.1591
18754PP      PP28858   3.158   9.440   9.917 -0.1828 -0.2074  0.0568
18755PP      PP28859   3.022  12.508  12.987  0.1134 -0.0145 -0.1255
18756PP      PP28860   3.411  10.674   3.456  0.0489  0.2351 -0.2189
18757PP      PP28861   0.915   6.337  12.214  0.0369 -0.0551  0.1593
18758PP      PP28862   5.102   1.127   9.070  0.0202  0.1423 -0.3622
18759PP      PP28863   6.407   3.004   1.668  0.2052 -0.0644 -0.2945
18760PP      PP28864   5.589   5.825   1.176  0.0636 -0.0045 -0.2027
18761PP      PP28865  11.504   6.949   9.485  0.2198 -0.1401  0.2802
18762PP      PP28866   3.612  15.227   2.295 -0.0900  0.2059  0.3013
18763PP      PP28867  10.099   4.348   1.572  0.1297 -0.0942  0.1087
18764PP      PP28868   9.921   4.240   8.679 -0.2646  0.0623 -0.4180
18765PP      PP28869   5.288   3.493  10.800 -0.0600 -0.1825  0.3281
18766PP      PP28870   4.002   9.312   4.221 -0.1870 -0.1126  0.1764
18767PP      PP28871   3.186   6.543  10.087 -0.0121 -0.1647  0.0483
18768PP      PP28872   1.402   5.381   4.654 -0.0015  0.0746  0.0310
18769PP      PP28873   4.035   7.097  10.726 -0.0613 -0.2779 -0.1248
18770PP      PP28874  13.655  12.410   0.972 -0.0524 -0.2967 -0.4173
18771PP      PP28875  14.995   6.473  12.300 -0.1783  0.1883 -0.1684
18772PP      PP28876  13.859  10.925  11.436  0.2209 -0.1266 -0.2513
18773PP      PP28877  10.726   5.399  11.641  0.0572  0.0100 -0.0571
18774PP      PP28878  11.901  13.786  11.838 -0.1687  0.2252  0.1056
18775PP      PP28879  15.818   8.755  13.222 -0.3894 -0.0568  0.0069
18776PP      PP28880  14.143   0.506   1.997 -0.1279  0.2192  0.1822
18777PP      PP28881   0.748   4.639  11.410 -0.1192 -0.0503  0.0763
18778PP      PP28882   4.241   8.373  12.680 -0.0172  0.0375  0.0505
18779PP      PP28883  10.441  11.806   1.529  0.0732  0.0431  0.0345
18780PP      PP28884  15.140  11.481   9.414  0.2711  0.0721  0.1406
18781PP      PP28885  11.691   7.428  13.109 -0.1743  0.1933 -0.1514
18782PP      PP28886   8.127   4.960   9.875  0.0692  0.3902  0.2950
18783PP      PP28887  13.373   1.882   1.696 -0.0519  0.1264  0.0294
18784PP      PP28888   5.090   3.276   2.104  0.0203 -0.0418  0.0270
18785PP      PP28889   4.176   5.910   3.613 -0.0523  0.1725 -0.0180
18786PP      PP28890  14.258  12.553  11.918 -0.2328 -0.3013  0.0600
18787PP      PP28891  13.571  15.780  12.707 -0.0910  0.3657 -0.1956
18788PP      PP28892  12.855   7.134   3.979  0.0400  0.1936  0.0126
18789PP      PP28893  11.947   1.544   4.502 -0.1696  0.0880  0.0182
18790PP      PP28894   5.640  13.276  10.252 -0.1003 -0.0296  0.2453
18791PP      PP28895   6.884   1.338   3.409 -0.0996  0.2185  0.2324
18792PP      PP28896   4.761   5.070   1.959 -0.1315  0.2329  0.4579
18793PP      PP28897   4.875  14.037  10.969  0.2309 -0.2735 -0.0087
18794PP      PP28898  15.876   9.454   3.989 -0.0188  0.1389  0.0081
18795PP      PP28899  10.901   7.261  10.177  0.0521 -0.2475 -0.3144
18796PP      PP28900  11.605   9.066   1.382 -0.0427  0.3026 -0.1103
18797PP      PP28901  11.436   3.674   0.618 -0.1963 -0.1517  0.0190
18798PP      PP28902  14.220  11.128  10.244 -0.0896 -0.0464 -0.1474
18799PP      PP28903  11.891   1.295  10.100  0.2350 -0.2559  0.2548
18800PP      PP28904  13.218  13.595  10.014 -0.1713  0.5116 -0.2381
18801PP      PP28905  15.833   7.754   9.845 -0.0332  0.1654 -0.1741
18802PP      PP28906  13.188   5.100   9.710  0.1604  0.1184  0.3163
18803PP      PP28907  15.132  11.493  12.898 -0.0392 -0.3663  0.1953
18804PP      PP28908   4.272   4.478  12.264  0.2678  0.0929  0.0883
18805PP      PP28909   6.356  12.115  10.755 -0.3494 -0.1067 -0.1123
18806PP      PP28910   1.985  13.330  10.190 -0.1242 -0.0760  0.1551
18807PP      PP28911   2.310   2.197   0.494 -0.0370 -0.1235 -0.0036
18808PP      PP28912  15.025   7.941  13.235 -0.1071 -0.0872 -0.0532
18809PP      PP28913   0.119   0.427   1.029 -0.1044  0.0621 -0.0120
18810PP      PP28914   2.597   5.836   1.590  0.1799 -0.1122  0.1135
18811PP      PP28915   6.058  13.458   3.575  0.3842  0.1514  0.2018
18812PP      PP28916   8.360   6.992   1.670  0.1016 -0.1376  0.4814
18813PP      PP28917   2.949  15.436  10.150 -0.4290 -0.0146 -0.1227
18814PP      PP28918  15.723  15.453   8.473  0.3413 -0.0184 -0.0078
18815PP      PP28919  12.447  11.121   0.286  0.0024 -0.1969  0.3436
18816PP      PP28920  12.503   1.813  11.649 -0.3703 -0.3373  0.2139
18817PP      PP28921   9.300   0.551   1.028 -0.1339 -0.2732 -0.2675
18818PP      PP28922   5.558   0.176   0.799  0.0808 -0.0244  0.0654
18819PP      PP28923   8.812   2.912   2.188  0.1542 -0.2785  0.3785
18820PP      PP28924   7.123   7.125   1.914 -0.1304  0.1260 -0.2273
18821PP      PP28925  12.054   9.053  11.552 -0.3480  0.2137 -0.1911
18822PP      PP28926   8.374   1.590  11.490 -0.0350 -0.0039  0.2851
18823PP      PP28927   8.840   3.108   9.463  0.1769  0.0308 -0.0046
18824PP      PP28928  12.700   5.008  12.676  0.0368  0.1021  0.3073
18825PP      PP28929   0.875  12.071   4.080 -0.1273 -0.0953  0.0809
18826PP      PP28930   9.203   6.205  12.472 -0.0379 -0.0161  0.0118
18827PP      PP28931  13.946  12.150  10.501  0.1310 -0.3128  0.0213
18828PP      PP28932   5.859   9.151   4.569  0.1693 -0.0341 -0.4256
18829PP      PP28933   8.399   7.141  11.911  0.1153 -0.0363 -0.0113
18830PP      PP28934   4.112   8.427  12.233  0.4040 -0.0556  0.2973
18831PP      PP28935  13.885   8.554   1.323  0.1845  0.1482  0.2342
18832PP      PP28936   3.203   4.801  11.602  0.0681  0.2238 -0.2615
18833PP      PP28937   1.367   5.395  11.517 -0.2279 -0.1385 -0.0450
18834PP      PP28938   3.540   7.900   2.366  0.0852 -0.0237  0.1495
18835PP      PP28939  11.301   7.856   0.403  0.1780 -0.2436 -0.2805
18836PP      PP28940   3.869   0.807  12.306 -0.3193  0.1390 -0.0059
18837PP      PP28941  14.301   7.336   4.459  0.2750 -0.0239  0.2597
18838PP      PP28942  13.593   5.398   1.810  0.0032 -0.1231 -0.1430
18839PP      PP28943   6.881   7.735  11.520 -0.2123  0.1505  0.1191
18840PP      PP28944   8.768   9.713   8.668 -0.0534 -0.0204  0.2871
18841PP      PP28945  11.808   5.717  11.980 -0.2864  0.4353  0.0952
18842PP      PP28946   9.863  10.541   0.825 -0.0237  0.2371  0.1117
18843PP      PP28947   5.504  14.354   3.406  0.0239 -0.0415 -0.0616
18844PP      PP28948  12.328  11.506  10.072  0.0072 -0.1164 -0.0389
18845PP      PP28949  12.623  12.187  11.111 -0.2735 -0.0325  0.1300
18846PP      PP28950   9.984   8.275   9.355 -0.0009 -0.1052 -0.0076
18847PP      PP28951  12.110   4.351  10.080  0.1624  0.0055 -0.2933
18848PP      PP28952   7.743   2.528   8.565  0.0078  0.1555 -0.0353
18849PP      PP28953  10.029   2.565  11.428  0.0629 -0.0157 -0.1353
18850PP      PP28954   2.469  15.458   9.138  0.3261  0.0535  0.3530
18851PP      PP28955   5.492  13.194  12.343 -0.1125  0.0047  0.0262
18852PP      PP28956  14.154   0.694   9.950  0.0386 -0.0314 -0.0716
18853PP      PP28957   0.659   5.553   0.935  0.0503  0.1139  0.2968
18854PP      PP28958   9.835  13.181   2.988  0.2284  0.3540 -0.1074
18855PP      PP28959  14.899  14.390  13.402  0.3854 -0.0368  0.0123
18856PP      PP28960  12.139   4.272   0.642  0.0483 -0.0483  0.1185
18857PP      PP28961   8.824  11.905   4.155  0.1629  0.0177  0.0226
18858PP      PP28962   3.845  13.492   4.078 -0.1191 -0.0940  0.1479
18859PP      PP28963   1.260   9.515  11.130  0.0098 -0.1396  0.0307
18860PP      PP28964   4.146   9.088   0.180 -0.2181  0.2083  0.2064
18861PP      PP28965   6.139  15.350  10.603 -0.2246 -0.2995 -0.2790
18862PP      PP28966  13.966   0.306  13.344 -0.2405 -0.0932 -0.1652
18863PP      PP28967   6.337   2.384  10.402  0.0910  0.1939 -0.0826
18864PP      PP28968  10.758   1.428   4.527  0.1116  0.0833 -0.3027
18865PP      PP28969   6.870   6.868  12.592  0.2595  0.0894 -0.2284
18866PP      PP28970  10.727   5.014   1.618 -0.0220  0.1959 -0.1853
18867PP      PP28971   2.265   7.577  10.276 -0.0687  0.0934 -0.2537
18868PP      PP28972   5.552   7.990  10.155 -0.0115 -0.2235 -0.0615
18869PP      PP28973   8.914  15.818  13.096 -0.0703 -0.0424 -0.0983
18870PP      PP28974   2.170   4.773   1.257 -0.1088  0.1347 -0.1226
18871PP      PP28975   9.244  11.032   0.170 -0.1431  0.1702 -0.1042
18872PP      PP28976   8.945   0.327   2.415  0.2990  0.1202  0.1387
18873PP      PP28977  14.448   0.866   1.852 -0.1312  0.1284  0.0909
18874PP      PP28978  13.265   3.345   2.294 -0.0448  0.2534 -0.1960
18875PP      PP28979   0.815   9.400  10.022  0.1999 -0.0184 -0.1612
18876PP      PP28980  12.232  13.315   1.590  0.1650 -0.0791 -0.1411
18877PP      PP28981  14.021   8.386   2.271  0.0201  0.1093  0.1115
18878PP      PP28982  11.035  13.005  13.090  0.1677  0.3002  0.2210
18879PP      PP28983  10.049  11.735  12.528 -0.1101  0.2182 -0.1269
18880PP      PP28984   3.654  10.044   0.800 -0.1162 -0.0448 -0.4166
18881PP      PP28985   7.826  14.696  10.843  0.0319  0.1101 -0.1060
18882PP      PP28986   0.175  15.732  12.765  0.0626  0.0268 -0.1845
18883PP      PP28987  12.677   0.180   0.644  0.0193  0.0762  0.0471
18884PP      PP28988   3.756  10.570  11.466 -0.1306 -0.4242  0.1228
18885PP      PP28989  13.610   5.070   2.601  0.2838  0.0220  0.0248
18886PP      PP28990  12.627   9.415   2.057  0.2150 -0.1229  0.2130
18887PP      PP28991   9.699  11.050  12.215 -0.0057 -0.1219 -0.2979
18888PP      PP28992   4.268  13.763   4.287 -0.3351 -0.0182  0.0535
18889PP      PP28993  15.123   2.120   9.932  0.2999 -0.0063 -0.2170
18890PP      PP28994   8.837   9.001   0.983  0.1463  0.3710  0.0399
18891PP      PP28995  15.745   7.087   3.190  0.0293 -0.0085  0.4699
18892PP      PP28996   3.294   9.142   2.393  0.1500 -0.1062 -0.3096
18893PP      PP28997  15.569  14.808  10.814 -0.1211 -0.1527 -0.1074
18894PP      PP28998  13.011   9.304  12.511 -0.0589  0.1304 -0.0412
18895PP      PP28999  10.185   4.767   4.134  0.0994 -0.0330  0.0177
18896PP      PP29000   7.536   2.475  10.740  0.1898 -0.1522 -0.2841
18897PP      PP29001   9.794   8.568   2.990  0.0371  0.0197 -0.1270
18898PP      PP29002   3.494   7.338   5.165 -0.0477  0.0780 -0.0688
18899PP      PP29003   8.086   0.330   2.109  0.0998 -0.0543  0.1326
18900PP      PP29004  14.808  12.985   9.742  0.0709  0.0956 -0.2784
18901PP      PP29005  11.366  11.567  12.085 -0.0001  0.3665  0.0704
18902PP      PP29006  11.054   3.441   2.165 -0.3406  0.1325 -0.4125
18903PP      PP29007   1.382  12.616   8.856 -0.1528  0.0445 -0.0944
18904PP      PP29008   0.739   1.453   2.138  0.0801  0.3170  0.1186
18905PP      PP29009   5.059   7.788   2.075 -0.0253  0.6819  0.0283
18906PP      PP29010   0.355   8.728   1.533  0.4678  0.2056 -0.0156
18907PP      PP29011  10.489  15.181   2.189  0.0023 -0.1084  0.0921
18908PP      PP29012   8.243  12.865   9.133 -0.1207 -0.0168  0.3532
18909PP      PP29013  12.509   6.904   2.204  0.0881  0.0027 -0.0454
18910PP      PP29014   6.884   0.006  11.064  0.2574  0.2646  0.0013
18911PP      PP29015  14.709   4.546   1.185  0.1726 -0.1049  0.1412
18912PP      PP29016   2.472   1.803  13.163  0.0580  0.4427 -0.2070
18913PP      PP29017   7.041   5.558  11.853  0.0892 -0.3814 -0.0930
18914PP      PP29018  12.745  12.901   8.532 -0.2192  0.1775  0.2148
18915PP      PP29019  14.282   0.431  10.899 -0.0329 -0.1149  0.0267
18916PP      PP29020   9.349  10.048  12.362 -0.0326  0.0838  0.2487
18917PP      PP29021   9.574  10.782   3.621  0.0295  0.0358 -0.0141
18918PP      PP29022   1.945   0.523   1.472  0.0765  0.1048  0.2946
18919PP      PP29023   6.435  11.250   4.042 -0.0862  0.1890  0.2309
18920PP      PP29024  10.456   5.870  10.035  0.0159  0.1617  0.1945
18921PP      PP29025  10.109   5.964   2.992  0.3319  0.3287  0.1195
18922PP      PP29026   0.016   4.876   2.040  0.2177  0.0804  0.0229
18923PP      PP29027   7.143  12.879   0.311 -0.1644 -0.0351 -0.0583
18924PP      PP29028  13.900  13.049   8.825  0.0125 -0.0135 -0.1672
18925PP      PP29029   6.118   3.060   9.641 -0.2292 -0.2228 -0.0412
18926PP      PP29030   0.116  15.779   3.236  0.1322  0.0192  0.2085
18927PP      PP29031   9.476  15.309   1.577 -0.1031 -0.0610  0.0303
18928PP      PP29032  11.350  12.168   3.725 -0.2349  0.3282  0.1700
18929PP      PP29033  12.773   0.440   4.491 -0.0692 -0.2204 -0.1319
18930PP      PP29034   9.193   2.923  12.008 -0.0358 -0.1902  0.1097
18931PP      PP29035  10.988   7.408   3.353  0.3000  0.0041 -0.3032
18932PP      PP29036   9.903   1.188   0.002  0.0321  0.0955 -0.0501
18933PP      PP29037  15.192   0.247  11.932  0.1953  0.2332  0.3737
18934PP      PP29038   0.942  14.464   3.218  0.0594 -0.2155 -0.1517
18935PP      PP29039   8.418   9.899   3.298  0.1540  0.5008 -0.0570
18936PP      PP29040   5.209   7.576   4.424  0.2669  0.1056  0.4594
18937PP      PP29041   5.987  15.337   1.454  0.0741  0.0037 -0.2026
18938PP      PP29042  12.508   2.027   9.888 -0.1703 -0.0736  0.1057
18939PP      PP29043  14.115   7.659  11.048 -0.0968 -0.0833  0.0571
18940PP      PP29044  13.737   0.059   3.476 -0.1154 -0.0861  0.1011
18941PP      PP29045  15.257   0.813   1.382  0.3110  0.1275 -0.0260
18942PP      PP29046   3.227  11.910   2.321 -0.3221 -0.0610  0.0201
18943PP      PP29047  14.555  13.524   0.492  0.0249  0.3385 -0.1029
18944PP      PP29048   7.257   1.415  10.601 -0.2884 -0.1912  0.2660
18945PP      PP29049   4.382   2.969   9.125  0.0960 -0.0244  0.3018
18946PP      PP29050  14.341   8.701   1.490  0.1685 -0.0496 -0.1997
18947PP      PP29051  14.410  11.657   0.575  0.1421  0.2383  0.0566
18948PP      PP29052   6.602   7.873   1.472  0.0042 -0.1162 -0.1473
18949PP      PP29053  15.395   7.533  10.689  0.0024 -0.2317  0.2822
18950PP      PP29054   9.980   8.035   4.018  0.3843  0.1847  0.0921
18951PP      PP29055  10.162   2.979   3.134  0.0573 -0.1696 -0.0941
18952PP      PP29056  12.084   0.880   0.579  0.1123  0.0265 -0.0069
18953PP      PP29057  10.178   8.939   2.105  0.0404  0.1619 -0.2356
18954PP      PP29058   4.021   2.437  13.281  0.0113 -0.3191 -0.1296
18955PP      PP29059   3.219   3.775  11.803  0.3040  0.0069 -0.0204
18956PP      PP29060   2.952   0.250   1.953 -0.4207  0.0995 -0.3320
18957PP      PP29061   9.944   4.278  13.130  0.0065 -0.1911 -0.1014
18958PP      PP29062  11.873   9.301  11.917 -0.1796  0.1092 -0.0922
18959PP      PP29063   6.458   9.770   2.092 -0.0734  0.0572  0.3327
18960PP      PP29064   5.150  12.674   1.285 -0.0860  0.0860 -0.1099
18961PP      PP29065  10.807   2.055   9.161 -0.0740  0.0092 -0.1841
18962PP      PP29066   4.732   7.758  11.816 -0.1490 -0.0160  0.0470
18963PP      PP29067   4.470  13.534   0.280  0.2472  0.0272  0.3196
18964PP      PP29068   1.423   6.510   3.692 -0.0876 -0.3013 -0.2401
18965PP      PP29069  11.089  11.220   8.539 -0.3817  0.0948 -0.0874
18966PP      PP29070  10.858   5.740   3.712  0.0074 -0.2225 -0.1567
18967PP      PP29071  13.555   2.113  10.031  0.0154 -0.1153  0.0788
18968PP      PP29072   0.229   9.656   0.609  0.0044 -0.1072  0.1445
18969PP      PP29073   3.420  12.450  10.085  0.2478  0.2961 -0.0008
18970PP      PP29074  12.400   7.841  12.925 -0.4168  0.0778 -0.2618
18971PP      PP29075   2.370  12.251  11.186  0.1149  0.0203 -0.0723
18972PP      PP29076  14.908  12.247  10.403  0.1489  0.0800 -0.1915
18973PP      PP29077   8.931  12.820   0.972  0.1503  0.0629 -0.0892
18974PP      PP29078   5.363  10.780  11.176 -0.3039  0.3249 -0.1458
18975PP      PP29079  15.759   8.101   9.510 -0.0837  0.1411  0.1004
18976PP      PP29080  11.297  13.082  12.014  0.0610  0.1056 -0.1758
18977PP      PP29081  11.518   4.681  10.650  0.1475  0.0767  0.0311
18978PP      PP29082   6.871  11.486   3.895 -0.0958 -0.0287  0.2860
18979PP      PP29083  10.338  11.372   3.396 -0.0535  0.1143 -0.0938
18980PP      PP29084   2.757   8.595  11.942  0.1729 -0.0361  0.2680
18981PP      PP29085  14.864  10.847   3.190  0.0449  0.2048  0.2147
18982PP      PP29086   3.685   8.344   1.376  0.1387 -0.1556  0.1638
18983PP      PP29087  10.923  14.949   2.503  0.1424 -0.2143  0.1220
18984PP      PP29088   7.406   5.435  12.294  0.1766 -0.2096 -0.0958
18985PP      PP29089   3.432   0.325  11.146  0.0277  0.0181  0.2152
18986PP      PP29090  11.141   0.721  12.645  0.1257  0.2952 -0.1442
18987PP      PP29091   8.794   0.909   9.320 -0.0356 -0.3991  0.3041
18988PP      PP29092  14.289  10.239   1.133  0.3064  0.0093  0.1763
18989PP      PP29093   7.649   2.810   9.062  0.2067 -0.1823  0.0544
18990PP      PP29094   7.442   1.530   2.526 -0.1092  0.1730 -0.1140
18991PP      PP29095   0.794   2.112  13.218 -0.1152 -0.2715 -0.0346
18992PP      PP29096   9.078  15.000   2.991  0.0506 -0.0715  0.0568
18993PP      PP29097  14.385   1.742   3.093  0.1202  0.0082 -0.1683
18994PP      PP29098   2.865  10.106   1.695 -0.0669  0.0527  0.1256
18995PP      PP29099  15.807   5.712  10.762  0.2838 -0.1393 -0.2537
18996PP      PP29100  15.441  11.748   9.749 -0.0529  0.0763  0.1374
18997PP      PP29101   1.869   8.258  11.959 -0.0929  0.1618  0.1804
18998PP      PP29102   7.871   9.397   0.285 -0.0129  0.1957  0.2764
18999PP      PP29103   0.950   7.827   3.960 -0.1003 -0.1312 -0.1381
19000PP      PP29104  13.475   8.416  12.385 -0.0344  0.0851  0.0262
19001PP      PP29105   0.209   2.119  11.199 -0.0526 -0.1304  0.1423
19002PP      PP29106   6.268   7.462  12.885 -0.1073 -0.2924  0.2645
19003PP      PP29107  12.531  12.418   1.097 -0.1070  0.1670  0.1730
19004PP      PP29108   1.290   7.864  13.158 -0.0287 -0.0963  0.2051
19005PP      PP29109   6.413  13.558  12.622 -0.1126  0.3000 -0.3371
19006PP      PP29110   2.301   6.188   4.341 -0.1771  0.2109 -0.1127
19007PP      PP29111  10.296   0.134  12.539 -0.2700  0.0390 -0.0066
19008PP      PP29112   0.447  14.954   2.264  0.1440 -0.0134 -0.0409
19009PP      PP29113  13.493   5.163  11.667  0.0159 -0.1014  0.0023
19010PP      PP29114  12.591  10.199  12.471 -0.1627 -0.0422 -0.0043
19011PP      PP29115  13.354   7.211   9.989  0.0287  0.2381 -0.2168
19012PP      PP29116   6.552   2.660  12.842 -0.1720 -0.4228  0.2104
19013PP      PP29117  15.613   7.720   4.922  0.1538  0.2949  0.3376
19014PP      PP29118   0.029   0.290  13.153  0.2352 -0.1006  0.1234
19015PP      PP29119   4.868  14.347  11.362 -0.1722 -0.2219 -0.3924
19016PP      PP29120  15.217   7.187   0.779  0.1836  0.2089  0.0179
19017PP      PP29121   9.998  11.211   9.318  0.1017 -0.1416 -0.0607
19018PP      PP29122  14.608  10.166   9.290  0.0478  0.1265  0.0682
19019PP      PP29123   7.850  14.175  13.346  0.1915 -0.0454 -0.1574
19020PP      PP29124   8.564  13.456  13.037 -0.1971 -0.2002 -0.1789
19021PP      PP29125   6.513   2.964  11.233 -0.0568  0.2685  0.2336
19022PP      PP29126   1.672   5.970   4.549 -0.1125 -0.0990  0.0363
19023PP      PP29127   4.846  13.814  13.158  0.0028  0.1302  0.2417
19024PP      PP29128   4.364   0.631  10.085  0.0859 -0.0382 -0.2677
19025PP      PP29129  13.292   2.171  11.823 -0.0020 -0.1638  0.0479
19026PP      PP29130   6.878  14.863   0.598 -0.0500  0.3719  0.2784
19027PP      PP29131  11.006  14.332   0.267 -0.0895  0.1688  0.0356
19028PP      PP29132   3.243   7.495   2.212 -0.0675  0.0836 -0.0543
19029PP      PP29133  11.499   0.012   9.584  0.2132 -0.2502  0.1882
19030PP      PP29134  13.231   9.111   3.431 -0.0657  0.0152  0.3693
19031PP      PP29135   8.273   9.109   1.705 -0.0924 -0.0390  0.0410
19032PP      PP29136   6.286  11.583  12.789 -0.0534 -0.3348  0.0834
19033PP      PP29137  12.755   1.874   9.317 -0.0057 -0.1366 -0.0282
19034PP      PP29138   0.464   4.288  11.812 -0.2492 -0.1066  0.3151
19035PP      PP29139   3.676   9.100   0.311 -0.0825 -0.1377 -0.0472
19036PP      PP29140  15.861   4.792   1.197 -0.1014 -0.0976  0.3045
19037PP      PP29141  15.894  12.831  10.906  0.1792 -0.0548  0.0652
19038PP      PP29142  11.550   9.401   2.807  0.0582 -0.2317 -0.3198
19039PP      PP29143  10.204   2.971   1.836 -0.1282  0.1669  0.2215
19040PP      PP29144   1.853   7.407  12.913  0.1134 -0.1920 -0.0234
19041PP      PP29145  11.714   9.800   3.949  0.1677 -0.1302  0.0363
19042PP      PP29146   1.379   8.210   0.787  0.0134 -0.2097  0.2185
19043PP      PP29147  10.376   2.147   0.786 -0.2075 -0.1190 -0.0408
19044PP      PP29148   3.899   8.187  13.018 -0.2550  0.0841  0.1256
19045PP      PP29149   1.194   8.708   0.320  0.1293 -0.4597 -0.0540
19046PP      PP29150  13.425   7.778  10.837 -0.0975 -0.0022  0.0430
19047PP      PP29151  14.022   0.749  12.272  0.1641  0.0832  0.2069
19048PP      PP29152  15.780   4.950   9.450  0.2989 -0.1705  0.3246
19049PP      PP29153   4.713  14.160  12.674 -0.0865 -0.2041  0.0548
19050PP      PP29154  14.405   3.173  10.014 -0.2662  0.0911 -0.1093
19051PP      PP29155  13.973   8.644   4.990  0.3193  0.1625 -0.0000
19052PP      PP29156   2.893   1.669   0.559 -0.0550  0.0577  0.0445
19053PP      PP29157   8.220   1.750  12.407 -0.0652 -0.0207  0.0241
19054PP      PP29158  12.206  13.765  10.236 -0.1967  0.2082  0.0624
19055PP      PP29159  10.868  14.438   9.114  0.1451 -0.2285 -0.0313
19056PP      PP29160   4.755  10.779   9.793  0.1006 -0.0453 -0.1242
19057PP      PP29161   6.543  13.641  10.480  0.2058 -0.2068  0.2799
19058PP      PP29162   9.639   8.641   1.489  0.0695 -0.2078 -0.2923
19059PP      PP29163  14.232   3.983   2.967 -0.0990  0.0450 -0.2854
19060PP      PP29164  10.922   7.128  12.717  0.1551 -0.0886  0.1127
19061PP      PP29165  13.865   4.994  12.015  0.0476 -0.0239 -0.2725
19062PP      PP29166   3.134   0.547   9.326 -0.1025  0.0288 -0.0109
19063PP      PP29167   0.107  11.203  12.907  0.0110  0.1046  0.1568
19064PP      PP29168  14.115   7.683  12.144  0.2696  0.0166 -0.2875
19065PP      PP29169  15.497   4.089   0.204  0.1787  0.2832  0.3018
19066PP      PP29170  14.882   9.297   2.936  0.0901 -0.0447 -0.1021
19067PP      PP29171  15.096  12.830   0.745  0.1662 -0.1186  0.2629
19068PP      PP29172  10.190   6.218  12.465 -0.0219  0.1285 -0.0190
19069PP      PP29173   5.757   3.358  11.688  0.1963  0.4343  0.2176
19070PP      PP29174   4.925   5.369  10.552  0.2088 -0.0574  0.0113
19071PP      PP29175   7.618  15.855  11.782  0.1730  0.3054 -0.2664
19072PP      PP29176   9.079  10.392   1.013 -0.0353  0.0819  0.1057
19073PP      PP29177   1.980   5.944  12.367  0.0921  0.1994 -0.3125
19074PP      PP29178   1.062  10.097   3.360 -0.1786  0.1076 -0.1596
19075PP      PP29179   5.087  10.599   2.307 -0.0298  0.1455  0.0469
19076PP      PP29180  12.365   6.400   4.568  0.1403  0.2168  0.1642
19077PP      PP29181  11.049  15.206   1.013 -0.2985 -0.3384  0.1253
19078PP      PP29182   0.272   1.354   2.383 -0.1813 -0.0288 -0.0924
19079PP      PP29183   1.645  13.212   3.605  0.3640 -0.0323 -0.0287
19080PP      PP29184   9.525   5.375  13.364  0.2021  0.2238  0.0105
19081PP      PP29185   6.931   9.321  11.583 -0.0536 -0.1336 -0.1068
19082PP      PP29186   4.217   3.766   0.724  0.0356 -0.1249  0.0943
19083PP      PP29187  13.759   7.818  13.073 -0.2430  0.3549 -0.3036
19084PP      PP29188  15.729   0.397   1.860 -0.0398  0.3499 -0.1998
19085PP      PP29189   7.347   6.849   2.281 -0.1059 -0.2630 -0.2171
19086PP      PP29190  11.934   2.844   4.053  0.1040  0.1886 -0.0192
19087PP      PP29191   8.458   6.681   3.625  0.2077  0.1903 -0.2883
19088PP      PP29192   6.047  11.094   1.970 -0.1893 -0.0073  0.0027
19089PP      PP29193   4.174   4.204   0.474  0.0533 -0.2097 -0.0660
19090PP      PP29194   8.401   7.677  12.420 -0.2981  0.0191  0.0741
19091PP      PP29195   4.064  13.029   4.356  0.0196 -0.2305  0.1199
19092PP      PP29196   7.725   2.674   2.958  0.0411  0.0288 -0.1728
19093PP      PP29197   3.493   5.053   1.685 -0.3291 -0.1999  0.2029
19094PP      PP29198   4.836   0.451  10.305 -0.1112  0.0137  0.2597
19095PP      PP29199  10.389   2.346   9.259 -0.1536  0.2006  0.1073
19096PP      PP29200  10.138   2.524   0.494 -0.0224  0.0677 -0.0622
19097PP      PP29201   3.851   0.374  10.856 -0.0634 -0.0392 -0.0623
19098PP      PP29202  11.471   0.275   1.223  0.0077 -0.0430 -0.1600
19099PP      PP29203  12.217  11.117  10.539  0.3851 -0.6690 -0.2042
19100PP      PP29204  10.028  14.782   2.846  0.0453  0.0769 -0.2555
19101PP      PP29205  10.699   7.441   0.846  0.0776 -0.1994 -0.0038
19102PP      PP29206   3.668  10.025  12.321  0.0641 -0.1303 -0.1797
19103PP      PP29207  12.168   5.447  10.706 -0.0672  0.1509 -0.2314
19104PP      PP29208  13.267   9.246  12.077  0.1663 -0.4106  0.1792
19105PP      PP29209   5.384   1.879  12.373  0.1506 -0.0280 -0.1531
19106PP      PP29210   6.814  12.139  12.523  0.0207  0.0494  0.0451
19107PP      PP29211  14.925   8.332   3.815  0.0708 -0.2608  0.0151
19108PP      PP29212  13.413  14.196   2.649 -0.0078 -0.2349 -0.3976
19109PP      PP29213   3.825   1.952   3.199 -0.0433 -0.0179 -0.1160
19110PP      PP29214   0.364   2.699   1.981 -0.0751 -0.2759 -0.1599
19111PP      PP29215  13.045   3.314   1.483 -0.0891 -0.0746  0.0209
19112PP      PP29216   8.647  12.164  10.297 -0.1448 -0.2170  0.0404
19113PP      PP29217   3.618  10.035  11.610 -0.0315 -0.1522 -0.0653
19114PP      PP29218   3.500  13.640   9.087  0.1300  0.0709 -0.0036
19115PP      PP29219   9.050   4.966   2.256  0.1057 -0.0781  0.1678
19116PP      PP29220   4.969   5.605  11.077 -0.3491  0.0025 -0.3566
19117PP      PP29221   1.839   7.586   2.702  0.4167 -0.2061 -0.3125
19118PP      PP29222   6.873   3.836   8.382 -0.2805  0.1297  0.4003
19119PP      PP29223  14.465   3.586   1.036 -0.0219 -0.2642  0.0606
19120PP      PP29224   0.360   7.930  13.045  0.4960 -0.2256  0.0034
19121PP      PP29225   2.294  14.784   0.050  0.1338  0.0466  0.3054
19122PP      PP29226   1.448   1.180   3.175  0.0679 -0.2159  0.1869
19123PP      PP29227   8.680  14.361   0.351 -0.0674 -0.0585 -0.0777
19124PP      PP29228   8.460   3.140   8.577  0.0308 -0.2518 -0.0065
19125PP      PP29229  12.511  15.892   0.167  0.1129 -0.0251  0.0137
19126PP      PP29230  12.078   8.362  10.945 -0.4599  0.1815 -0.0773
19127PP      PP29231  11.588  12.143   0.761 -0.1147  0.1877  0.0251
19128PP      PP29232  12.875  13.873   0.365 -0.3743 -0.1497 -0.1187
19129PP      PP29233   5.156   4.835  10.454  0.1457  0.0506  0.0560
19130PP      PP29234   9.952   2.262   2.259 -0.2158  0.2327 -0.1660
19131PP      PP29235   6.782  11.216  10.540  0.1834 -0.0249  0.0703
19132PP      PP29236   1.864   8.428  12.796 -0.0743 -0.1357 -0.2307
19133PP      PP29237  14.745   0.520   0.445 -0.1295 -0.1894 -0.2049
19134PP      PP29238   3.071   9.742   3.083 -0.2137  0.0363 -0.2996
19135PP      PP29239   8.482   5.618   0.186 -0.1950  0.0695 -0.1163
19136PP      PP29240   7.214   7.560  12.972  0.3387  0.2440  0.1774
19137PP      PP29241   4.689   3.506   0.623  0.0138  0.1795 -0.2586
19138PP      PP29242   9.876   0.161   8.537 -0.3078  0.1437 -0.1226
19139PP      PP29243   4.508   9.854  12.624 -0.2572 -0.1652 -0.0731
19140PP      PP29244   8.095  13.113   4.491 -0.0008 -0.0592 -0.3376
19141PP      PP29245  14.544  13.428  10.556  0.1489  0.3400 -0.3084
19142PP      PP29246   3.681   2.289   0.301  0.0125  0.1500  0.0622
19143PP      PP29247   2.644   8.921   4.293  0.0904 -0.2401 -0.0435
19144PP      PP29248  15.606  11.166  11.887 -0.1055 -0.3725 -0.1026
19145PP      PP29249  14.477  15.604  11.240 -0.0286  0.2043  0.4958
19146PP      PP29250  12.957  15.013  10.280 -0.0717 -0.1742  0.0010
19147PP      PP29251   1.675  10.632   2.442  0.1670  0.1338 -0.0422
19148PP      PP29252   8.995   0.465   9.222 -0.3533  0.0548 -0.1108
19149PP      PP29253   8.480   0.658   2.142 -0.0961  0.0897 -0.1338
19150PP      PP29254   6.186   7.338  10.481  0.3804 -0.0765 -0.0371
19151PP      PP29255   4.618   1.416   4.799 -0.3818  0.2344 -0.1716
19152PP      PP29256   2.890   6.640   0.035  0.2255 -0.2030  0.1808
19153PP      PP29257  14.340   5.820   1.681 -0.2373  0.2775 -0.2273
19154PP      PP29258   5.247   7.815   4.016 -0.2580 -0.0227  0.0080
19155PP      PP29259   0.479   8.462   5.455 -0.1088  0.0627  0.1370
19156PP      PP29260  10.247   1.273   3.313 -0.3199 -0.1982  0.0054
19157PP      PP29261  12.785  15.850   4.269  0.1920  0.2383 -0.2439
19158PP      PP29262   8.416  10.095   9.750 -0.2067 -0.3088  0.1338
19159PP      PP29263  14.496   6.152   4.190  0.0049 -0.2598  0.2316
19160PP      PP29264   8.194  11.432  10.276 -0.0879  0.1299 -0.2452
19161PP      PP29265   0.301  14.215   1.242 -0.3614  0.0235 -0.1557
19162PP      PP29266   2.760  13.987   3.146 -0.1767  0.3868 -0.5233
19163PP      PP29267  11.204   1.561  13.172 -0.0028  0.1792 -0.0428
19164PP      PP29268   5.821  10.464  13.439 -0.1673 -0.1114  0.0975
19165PP      PP29269   1.506   7.750   0.454 -0.0590 -0.0850 -0.3633
19166PP      PP29270   1.510   9.783   0.142  0.3003 -0.1175 -0.1595
19167PP      PP29271  13.342  11.100   2.613 -0.4632  0.0916  0.0214
19168PP      PP29272  11.509   2.386  12.610  0.1022  0.1293 -0.0772
19169PP      PP29273  10.442   3.419   9.048 -0.2241  0.0478  0.1307
19170PP      PP29274   1.644   3.945  11.122 -0.1357 -0.1412 -0.4956
19171PP      PP29275  12.653   5.328   3.733  0.0142  0.0149 -0.0351
19172PP      PP29276  11.986   6.649   3.736  0.1353  0.4310  0.1766
19173PP      PP29277  15.087   1.933  11.331 -0.0661 -0.2326  0.1038
19174PP      PP29278   1.603   3.769   4.071 -0.2519  0.1758  0.1207
19175PP      PP29279  10.686  14.075  10.453 -0.1561 -0.2335 -0.1828
19176PP      PP29280   0.188   2.517   2.926 -0.2992  0.1148  0.2413
19177PP      PP29281  12.573   6.918  10.785 -0.3733 -0.1036 -0.1833
19178PP      PP29282  15.533   5.136   1.702 -0.2139 -0.1932 -0.4747
19179PP      PP29283   3.432   6.624   0.128  0.3811  0.3377 -0.0710
19180PP      PP29284   8.142  14.210   0.464  0.2663 -0.0147 -0.0572
19181PP      PP29285   5.534   9.808   3.484  0.1688  0.0082 -0.1340
19182PP      PP29286  11.277  15.647   1.055  0.1299 -0.4613  0.3956
19183PP      PP29287  11.660   2.561   0.495  0.2712  0.2066  0.0411
19184PP      PP29288   2.149   4.323   2.250  0.1374 -0.0699 -0.2151
19185PP      PP29289  14.770   7.225   1.173  0.2265 -0.1483 -0.1064
19186PP      PP29290   4.261   5.502  11.284 -0.0120  0.1432  0.2430
19187PP      PP29291   7.102   6.333   0.912 -0.1373  0.1906  0.1128
19188PP      PP29292  14.784   1.952  12.797 -0.1663  0.1755 -0.4015
19189PP      PP29293   0.268   0.121   1.988  0.3083  0.0122 -0.0923
19190PP      PP29294   0.232  10.165   1.682  0.1890 -0.3703  0.1595
19191PP      PP29295   5.724   5.833   0.674 -0.2094  0.1975 -0.2943
19192PP      PP29296  10.628  11.492   3.061 -0.1851 -0.0662  0.1595
19193PP      PP29297  11.207   0.810   3.270  0.2480  0.2403 -0.1984
19194PP      PP29298  14.918   8.545   1.542  0.1061 -0.2898 -0.0048
19195PP      PP29299   2.725   2.622  10.324 -0.2722 -0.2397 -0.0657
19196PP      PP29300  12.058   6.911  12.166 -0.0570 -0.2554  0.3869
19197PP      PP29301  13.901   0.396   3.132 -0.0362  0.2095  0.1918
19198PP      PP29302  12.714  11.720   2.111  0.0063 -0.0304  0.3700
19199PP      PP29303   6.556   6.054   0.945  0.1114 -0.0429 -0.0669
19200PP      PP29304   1.581  12.187   9.873 -0.2940 -0.1403  0.1790
19201PP      PP29305   0.728   7.660  13.284  0.0492  0.1571 -0.0891
19202PP      PP29306   0.078  10.394   1.294  0.0847 -0.1066 -0.0066
19203PP      PP29307   8.282   2.367  10.239  0.0362  0.1059 -0.1681
19204PP      PP29308   6.287   4.070   9.313 -0.1946 -0.3939 -0.0693
19205PP      PP29309  10.482  11.017  12.312  0.2028 -0.0950  0.1845
19206PP      PP29310   3.355   5.975  11.164  0.0889  0.0924  0.2672
19207PP      PP29311   0.435   4.578   0.941  0.0762 -0.3407 -0.1714
19208PP      PP29312   0.754   8.099  11.714  0.0734  0.0558  0.1166
19209PP      PP29313  10.390   5.359   1.494  0.1161  0.3338 -0.0920
19210PP      PP29314  11.193   3.998   9.695 -0.1248 -0.0611 -0.1202
19211PP      PP29315  14.999   6.311   1.431 -0.0990 -0.3759  0.3822
19212PP      PP29316   5.016   1.475  11.520 -0.0571 -0.2900  0.0068
19213PP      PP29317  12.045   3.613  11.411  0.0174 -0.1736  0.1115
19214PP      PP29318   6.843   5.121  13.219 -0.2703  0.0860 -0.0604
19215PP      PP29319   7.366   1.775   9.339 -0.0180  0.2671 -0.3259
19216PP      PP29320   5.496   9.222  13.067  0.0160  0.0422 -0.1031
19217PP      PP29321   1.725   4.322  12.524  0.3261  0.0945  0.1508
19218PP      PP29322  15.122   6.240   0.201  0.0465  0.3587 -0.1784
19219PP      PP29323   8.118   4.260   8.493  0.4620 -0.2462 -0.1477
19220PP      PP29324   8.828   7.064   1.914  0.0831 -0.2249  0.0727
19221PP      PP29325   9.406  11.481   0.452  0.4225 -0.0064  0.3656
19222PP      PP29326  14.848  12.548   4.198 -0.0065  0.1880  0.3249
19223PP      PP29327   1.138  14.808   1.043 -0.0505  0.1506  0.4448
19224PP      PP29328  12.730  14.150  11.568  0.0168  0.2003  0.1696
19225PP      PP29329  14.676  12.364  11.222 -0.1376 -0.1207  0.0888
19226PP      PP29330   8.590   6.568   4.331 -0.0550 -0.0470 -0.1065
19227PP      PP29331  13.836   7.093  11.102  0.0263 -0.3115  0.0557
19228PP      PP29332   9.637  15.889   3.794 -0.2294  0.1343  0.0504
19229PP      PP29333   3.611   4.626  12.122  0.0532  0.0723 -0.3037
19230PP      PP29334  13.993  10.397   1.471 -0.0773 -0.2554 -0.0287
19231PP      PP29335  12.383  11.523  12.929  0.0785  0.2832  0.3468
19232PP      PP29336   8.565   5.203   1.674 -0.2573  0.2591 -0.0412
19233PP      PP29337  11.960   8.091   2.564 -0.2071  0.0407 -0.1525
19234PP      PP29338   9.728   2.243  11.127  0.0156  0.4309 -0.2627
19235PP      PP29339   0.417   6.276   3.882  0.0361  0.1595  0.1833
19236PP      PP29340  14.073   5.210   2.514  0.2337  0.0908 -0.1061
19237PP      PP29341   2.321   6.841  13.326  0.0432 -0.1067 -0.0841
19238PP      PP29342   1.554  11.154  12.906 -0.0335  0.0935 -0.0353
19239PP      PP29343   2.081   2.356   3.941 -0.1024  0.0968  0.1738
19240PP      PP29344   6.967   0.606  10.419 -0.1657 -0.0381 -0.1864
19241PP      PP29345   8.919   2.212  10.326 -0.1265  0.0019  0.2994
19242PP      PP29346  11.364   8.932   2.751  0.0643 -0.3116 -0.2149
19243PP      PP29347  13.704   9.604   3.911  0.2186 -0.2339  0.1437
19244PP      PP29348  10.799  14.668   1.101 -0.1578  0.1203  0.0224
19245PP      PP29349   6.130  15.081   4.296  0.2537 -0.0838 -0.0365
19246PP      PP29350   6.803   1.942   1.878 -0.1690 -0.3327  0.0789
19247PP      PP29351  15.833  11.500   3.766 -0.0729 -0.1332 -0.0239
19248PP      PP29352  12.458  12.897   2.811 -0.2377  0.1724 -0.1578
19249PP      PP29353  14.020   0.068  12.905 -0.2746 -0.2801  0.2656
19250PP      PP29354   1.387   5.999   1.955 -0.3358 -0.0842 -0.1100
19251PP      PP29355   3.575  11.551   4.286  0.1800  0.0573  0.1338
19252PP      PP29356   7.311  15.129   1.407 -0.1873  0.1235  0.2153
19253PP      PP29357   4.106  14.774  12.545  0.0652 -0.0046  0.0344
19254PP      PP29358   2.575   1.976   8.995  0.1611  0.1944 -0.0759
19255PP      PP29359  12.248  15.088  12.764  0.1343 -0.1266  0.1021
19256PP      PP29360  15.404  12.491   0.906 -0.2928  0.2315  0.0180
19257PP      PP29361  11.626  13.063   3.201  0.1010  0.1234 -0.1881
19258PP      PP29362   5.708   1.366   0.871  0.1382  0.1811  0.2035
19259PP      PP29363   1.282   9.137  12.868 -0.1175 -0.2170 -0.1781
19260PP      PP29364  10.342  12.815   1.385 -0.2079  0.1868 -0.1792
19261PP      PP29365   4.198  15.825   2.663  0.4496  0.1189 -0.1801
19262PP      PP29366   7.431  12.895   9.897 -0.0123  0.0214 -0.2492
19263PP      PP29367   3.130   1.470   1.567 -0.0628  0.0803  0.1882
19264PP      PP29368  14.225  14.086   0.554  0.1726 -0.0910 -0.2040
19265PP      PP29369   1.153   2.077   8.875 -0.0841 -0.2059 -0.0048
19266PP      PP29370  13.449  15.267  11.172 -0.1568  0.0416  0.0818
19267PP      PP29371   5.748   9.548   4.024  0.0744 -0.1829  0.0600
19268PP      PP29372  11.207  13.555   1.348 -0.3057 -0.0857  0.1863
19269PP      PP29373  14.575  13.995   8.985 -0.0384 -0.2487 -0.1866
19270PP      PP29374  14.578  12.102   0.713  0.2779  0.1441  0.1086
19271PP      PP29375   5.295   1.089   0.779 -0.0167  0.0292 -0.1014
19272PP      PP29376   2.751  10.112  12.097  0.2912 -0.2112  0.0239
19273PP      PP29377   0.413  15.502   1.995  0.1763  0.2779  0.0692
19274PP      PP29378   0.800   9.258  12.047 -0.0315  0.3882 -0.0044
19275PP      PP29379  13.222   0.344   3.185  0.2595 -0.2204 -0.1497
19276PP      PP29380   5.307  10.283   3.471 -0.0058  0.0179 -0.2844
19277PP      PP29381   3.825   9.592  12.417 -0.0579 -0.2396 -0.0825
19278PP      PP29382   4.208   2.486   8.538  0.0523  0.1793  0.1036
19279PP      PP29383   9.683   2.023   4.310  0.0447  0.1936  0.4179
19280PP      PP29384   3.392   1.828   0.182  0.1195 -0.0065 -0.0055
19281PP      PP29385  10.111  14.834  13.442  0.0030  0.0248  0.2030
19282PP      PP29386   6.462   0.238   2.196  0.3267 -0.0758  0.2786
19283PP      PP29387  11.172  14.104  12.491  0.1290  0.1245 -0.0861
19284PP      PP29388   4.713  13.265   2.511 -0.0816  0.4060 -0.0308
19285PP      PP29389  13.038   1.840  11.595 -0.1508 -0.2267  0.0714
19286PP      PP29390  14.133   2.976   3.201  0.1700  0.2947 -0.0318
19287PP      PP29391   4.834  12.816   2.236 -0.3287 -0.3601  0.0451
19288PP      PP29392   2.007   1.635   1.654 -0.0110  0.0346  0.0214
19289PP      PP29393   7.036   8.779  11.206 -0.0503 -0.0197 -0.1774
19290PP      PP29394   6.272   8.222  10.948  0.2321 -0.3254  0.2245
19291PP      PP29395   8.860   0.939  11.292  0.1510 -0.1243  0.1655
19292PP      PP29396  14.438   5.023  13.143 -0.0244  0.1397 -0.1125
19293PP      PP29397  11.030   7.908   3.632  0.1430  0.1509  0.0962
19294PP      PP29398   7.432   5.966   0.889  0.0362 -0.0518  0.0143
19295PP      PP29399   3.141   4.895  10.252 -0.0983 -0.0373 -0.0757
19296PP      PP29400  10.922   6.996   0.163 -0.0048  0.1008  0.1336
19297PP      PP29401   5.242   7.133  10.513  0.0910  0.0933  0.0800
19298PP      PP29402   8.785   8.777  12.101 -0.1825  0.1638 -0.2327
19299PP      PP29403  13.306  12.276  11.097 -0.1799  0.3382 -0.0657
19300PP      PP29404   3.409  13.208  11.529 -0.0444  0.1113  0.0419
19301PP      PP29405   0.881  13.871  12.783  0.0617 -0.1876 -0.0059
19302PP      PP29406   1.298   6.685  10.738 -0.4427 -0.0271  0.1452
19303PP      PP29407  13.877  15.010   2.454 -0.3447 -0.0212  0.0586
19304PP      PP29408   8.167  13.396   9.472 -0.3343  0.1258  0.0519
19305PP      PP29409  12.496  13.183   8.947 -0.1451 -0.0168 -0.2119
19306PP      PP29410   4.829   3.793   3.728 -0.0671 -0.3004 -0.1766
19307PP      PP29411  10.911   1.583   2.107 -0.0258  0.3404  0.3764
19308PP      PP29412  10.824   7.113   1.280  0.0968  0.5432 -0.0525
19309PP      PP29413  11.541   7.208  10.111  0.2424 -0.1327 -0.0444
19310PP      PP29414  12.221   4.924  12.401 -0.1705  0.1878 -0.1978
19311PP      PP29415  15.111   6.283  12.774  0.0543 -0.0341 -0.1128
19312PP      PP29416   4.988  12.131   0.301 -0.1092  0.0846 -0.0390
19313PP      PP29417   6.495   1.688   9.183 -0.0652 -0.1223 -0.0986
19314PP      PP29418   2.226  14.589  10.745  0.2936 -0.0416 -0.3622
19315PP      PP29419   7.430   5.948   2.459 -0.1877  0.2071  0.1404
19316PP      PP29420  10.340   3.913   1.679  0.0301  0.0675  0.0298
19317PP      PP29421  15.409  11.217   3.985 -0.1202 -0.0831  0.2585
19318PP      PP29422  15.870   3.993   1.631 -0.0858  0.0969 -0.0675
19319PP      PP29423   8.653  13.444   9.581 -0.3389  0.0594 -0.0701
19320PP      PP29424   2.356   0.890   2.327 -0.1851  0.0484 -0.3186
19321PP      PP29425   6.003   9.272  12.994 -0.0626 -0.1023  0.3182
19322PP      PP29426   9.737   7.969  12.730  0.2489 -0.2103 -0.2280
19323PP      PP29427  12.383   3.884   0.310 -0.1057  0.0958 -0.2176
19324PP      PP29428  13.076  11.914  11.369 -0.1545  0.0958  0.0239
19325PP      PP29429   9.828   9.192   9.207 -0.2952  0.2010  0.0635
19326PP      PP29430   5.866   5.059   1.633 -0.0236  0.0096 -0.2432
19327PP      PP29431   0.042  10.525  11.010  0.1047  0.0823  0.2705
19328PP      PP29432  15.504   4.853   4.094  0.1033 -0.1804 -0.3213
19329PP      PP29433   0.634   8.765   0.320 -0.0218 -0.1531 -0.2120
19330PP      PP29434  15.080   3.371   2.966  0.1165 -0.0502  0.2513
19331PP      PP29435  11.088  13.236   3.139  0.0783 -0.2978  0.3205
19332PP      PP29436  11.257  13.065  12.524 -0.0920 -0.0362  0.0647
19333PP      PP29437   5.945   6.526   2.317 -0.4166  0.1757 -0.2353
19334PP      PP29438   4.578  13.273  11.797 -0.1074  0.1469  0.0221
19335PP      PP29439   2.376   0.722  13.421  0.0260  0.0411  0.0164
19336PP      PP29440   1.164   6.473  12.734  0.0072  0.1076 -0.0010
19337PP      PP29441  13.409   7.451   2.538 -0.0941  0.1648  0.0887
19338PP      PP29442  14.513   0.711   9.378 -0.1751  0.0637 -0.1486
19339PP      PP29443  13.284   1.065  12.524 -0.1711 -0.3029  0.1788
19340PP      PP29444   7.556   9.530   2.470 -0.0288  0.1722 -0.0565
19341PP      PP29445   6.036   9.541   1.066  0.3218 -0.0753 -0.0449
19342PP      PP29446   3.867   9.705  10.319 -0.2232 -0.3188  0.0601
19343PP      PP29447   4.485   6.134  12.962 -0.0768  0.0647 -0.0682
19344PP      PP29448   7.776   1.244   4.537 -0.2435  0.2426 -0.0666
19345PP      PP29449   4.967   8.782   3.507  0.0136  0.2076 -0.2053
19346PP      PP29450  11.148  13.942   1.676  0.4111  0.2084 -0.1021
19347PP      PP29451   4.278   5.621   1.805 -0.2998 -0.0177  0.1654
19348PP      PP29452   5.705   3.239   2.980 -0.0697  0.1339  0.1199
19349PP      PP29453  15.235  11.364  12.387  0.3592 -0.0057 -0.0119
19350PP      PP29454   6.209  13.091   0.200  0.0273  0.2660 -0.1840
19351PP      PP29455   5.507   4.911   1.178 -0.1716  0.1670 -0.1294
19352PP      PP29456  11.673   7.655   8.869 -0.0143 -0.0635  0.1388
19353PP      PP29457  10.457   6.496   3.936  0.2456 -0.0813  0.2356
19354PP      PP29458   9.775  14.704   0.872  0.0753  0.1032  0.1216
19355PP      PP29459   3.065   3.541  13.178 -0.0919  0.3699  0.1003
19356PP      PP29460   4.624   6.120   9.848 -0.0774  0.0240  0.3965
19357PP      PP29461   9.313   8.456   1.115 -0.0265  0.1746 -0.0249
19358PP      PP29462   1.485   1.515  13.306  0.0365 -0.0379  0.0228
19359PP      PP29463   1.891  12.029  10.387  0.0553  0.1431  0.1404
19360PP      PP29464  10.312  13.347   9.405 -0.0910 -0.0880 -0.1335
19361PP      PP29465   0.191   3.281   3.491  0.0420 -0.1117  0.0916
19362PP      PP29466   3.484   9.446   3.671 -0.0348  0.0671  0.0708
19363PP      PP29467   8.776   5.242  13.049 -0.1987  0.4202  0.0351
19364PP      PP29468  15.095   2.552  11.065  0.1358  0.3132  0.0634
19365PP      PP29469   6.161   4.529   3.377  0.0843 -0.1395  0.3002
19366PP      PP29470   2.214  14.578   4.373  0.4996  0.1298  0.1622
19367PP      PP29471   3.808   0.764  11.622 -0.2110 -0.2497  0.1744
19368PP      PP29472  14.286   4.161   4.170  0.0656  0.1265 -0.1273
19369PP      PP29473   3.015   2.534  11.974  0.3038 -0.1566  0.1270
19370PP      PP29474   5.181   7.088   3.374 -0.1770 -0.1241  0.0193
19371PP      PP29475  13.531  12.678  13.276 -0.5081  0.0625 -0.1089
19372PP      PP29476   5.027   4.951  11.805 -0.0092 -0.0392 -0.5210
19373PP      PP29477  12.572   8.112   3.505 -0.0203 -0.0473 -0.1057
19374PP      PP29478   6.011   4.743  11.957 -0.0548 -0.1290 -0.0784
19375PP      PP29479  10.965  10.096   1.013  0.2237  0.0653 -0.0090
19376PP      PP29480   4.511  14.029   9.322 -0.1971 -0.1755 -0.0275
19377PP      PP29481   1.666   2.748  12.164 -0.4048 -0.0295  0.1013
19378PP      PP29482  12.196   8.422  12.968  0.1533  0.0885  0.2368
19379PP      PP29483   3.400   0.541  10.141 -0.0796 -0.1448 -0.0531
19380PP      PP29484  12.567   9.455   3.563 -0.0758 -0.2775  0.0828
19381PP      PP29485  13.903   6.372  10.774 -0.0367  0.0093  0.1238
19382PP      PP29486   2.103  12.680  12.946 -0.1010 -0.3472  0.0768
19383PP      PP29487   6.447  13.873   3.559 -0.1194 -0.0339  0.0432
19384PP      PP29488   3.892   8.660   1.032  0.1034 -0.0014  0.0128
19385PP      PP29489   7.820  11.715  10.079  0.1161 -0.0294 -0.2748
19386PP      PP29490  12.274  13.844   2.354 -0.1084  0.0701 -0.1552
19387PP      PP29491  11.096   8.037   3.140 -0.0061 -0.2736 -0.1162
19388PP      PP29492   8.692  12.996  11.921  0.0883 -0.5798 -0.1442
19389PP      PP29493   5.902   0.022   1.668 -0.1048 -0.4775 -0.1048
19390PP      PP29494  11.467   2.803  10.619  0.0599 -0.1377  0.3026
19391PP      PP29495  10.444  12.204   2.247 -0.0888 -0.2705 -0.0068
19392PP      PP29496   6.232  11.424   0.541  0.1509  0.2183 -0.0729
19393PP      PP29497   4.134  11.549   3.575  0.0038 -0.0941 -0.1343
19394PP      PP29498   1.232   9.877   2.941  0.0472  0.0936 -0.0754
19395PP      PP29499   6.785  14.074   4.462 -0.1096 -0.0223 -0.0958
19396PP      PP29500  14.738   9.829   0.457  0.2526 -0.0019 -0.2124
19397PP      PP29501   5.794   9.767   4.680  0.0658  0.2479  0.1443
19398PP      PP29502   0.149   9.594   0.043  0.0812  0.0138  0.3047
19399PP      PP29503   4.315   5.030  13.209 -0.2497 -0.0579  0.0723
19400PP      PP29504  11.427  10.100   3.719  0.1587 -0.1486 -0.2191
19401PP      PP29505  10.599  10.698   4.093  0.2165  0.2611  0.0932
19402PP      PP29506   1.319   2.334  12.246 -0.0084  0.0754  0.1175
19403PP      PP29507  13.783   6.487   0.582 -0.0617 -0.0094 -0.2914
19404PP      PP29508   5.216   9.917   2.144  0.1835  0.1387  0.0928
19405PP      PP29509   1.443   5.087   0.441 -0.1395  0.1637  0.0675
19406PP      PP29510   8.724  14.782  12.836 -0.1941 -0.1335  0.0783
19407PP      PP29511   1.354  15.093  13.128 -0.1907  0.0510  0.3000
19408PP      PP29512   3.903   7.060  12.639  0.0425  0.1066 -0.0781
19409PP      PP29513   4.015  13.216  10.565  0.2056 -0.0429 -0.4419
19410PP      PP29514  12.574  13.721   1.544  0.1717  0.0672  0.0923
19411PP      PP29515  10.042  14.598   9.943 -0.0750  0.1499 -0.4835
19412PP      PP29516   5.440   6.043  10.913 -0.0189 -0.0557 -0.3079
19413PP      PP29517  14.081   3.371  12.175  0.0467 -0.0658 -0.1707
19414PP      PP29518  10.773  12.982   0.158  0.0841  0.0122  0.0308
19415PP      PP29519  15.091   1.927   2.727 -0.0251  0.0715 -0.0738
19416PP      PP29520   1.806   5.984   9.660  0.2110 -0.3167  0.1594
19417PP      PP29521  12.866   4.780   9.474  0.1995  0.0419 -0.0096
19418PP      PP29522  13.251  13.566   2.854 -0.1640 -0.3420  0.0900
19419PP      PP29523  15.694   0.488  10.407 -0.2417  0.1780  0.0062
19420PP      PP29524  15.090  14.346   9.438 -0.4234  0.0423 -0.0374
19421PP      PP29525   8.914   6.226   2.480 -0.3235 -0.2853  0.0780
19422PP      PP29526   3.554   6.096   3.151 -0.1100 -0.0002  0.1891
19423PP      PP29527   2.723   4.908  11.541 -0.1468  0.0399  0.1258
19424PP      PP29528   5.568   2.648  12.689 -0.0283 -0.0143 -0.1052
19425PP      PP29529   4.452   0.429   8.685  0.0814  0.0880 -0.0082
19426PP      PP29530  11.448   7.882   1.135 -0.0241 -0.0176 -0.1539
19427PP      PP29531  10.572   1.993  11.898  0.4147  0.0709  0.0661
19428PP      PP29532   3.555  15.331   1.158 -0.0540 -0.4092 -0.0714
19429PP      PP29533  14.255   3.061   0.792 -0.3630  0.1276 -0.3833
19430PP      PP29534   6.530  10.778   1.088 -0.4313  0.2086 -0.3513
19431PP      PP29535  10.406   6.666  12.613  0.1954  0.0629 -0.0722
19432PP      PP29536  10.042  13.088   7.908  0.1454 -0.5292 -0.2676
19433PP      PP29537   2.718  14.371   2.451 -0.0655  0.1209 -0.1518
19434PP      PP29538  11.560   9.269   9.022 -0.0155  0.0418 -0.2011
19435PP      PP29539   2.428  10.504   2.474  0.2362 -0.1914  0.3146
19436PP      PP29540  14.148   8.098   2.658  0.1552  0.0652 -0.0869
19437PP      PP29541  12.177   4.520   2.346  0.1323  0.0309  0.1427
19438PP      PP29542   2.217   5.975   3.891 -0.1676  0.0207  0.0750
19439PP      PP29543   5.285  14.532   5.166 -0.1162 -0.1098 -0.1151
19440PP      PP29544   1.857   7.023  12.597 -0.3000  0.0409 -0.0115
19441PP      PP29545   8.122   5.211   0.223 -0.1099 -0.0506 -0.0387
19442PP      PP29546   2.880  11.619  10.763 -0.0442 -0.1581 -0.1815
19443PP      PP29547   8.505   7.969   9.932 -0.0373 -0.0469  0.0487
19444PP      PP29548   5.860   4.676  11.389  0.0165  0.2582 -0.2870
19445PP      PP29549  13.051   1.804  12.999 -0.5514 -0.1926  0.0154
19446PP      PP29550  14.422  15.146   0.299 -0.1943  0.1586 -0.0109
19447PP      PP29551   1.395   4.805   2.811  0.0706 -0.0195  0.1344
19448PP      PP29552   9.864   5.455   9.291 -0.1329 -0.2098 -0.2494
19449PP      PP29553  13.141   8.844   8.889 -0.1053  0.2947 -0.1358
19450PP      PP29554  10.748   1.236  11.802 -0.0175  0.2053 -0.1321
19451PP      PP29555   5.570   8.680   1.188  0.1542  0.1905  0.2398
19452PP      PP29556  11.567   6.739  12.122 -0.3287  0.1366 -0.1906
19453PP      PP29557   1.173  15.760   9.548 -0.0036  0.0321  0.1679
19454PP      PP29558  14.024  13.620  13.046 -0.3015 -0.0950  0.2541
19455PP      PP29559  12.340   8.527   8.959 -0.2966 -0.1144 -0.0568
19456PP      PP29560  15.619   3.880   1.214  0.0964 -0.0454 -0.1276
19457PP      PP29561   2.349   4.515   4.246 -0.0958  0.2987 -0.1549
19458PP      PP29562  11.307  11.322   0.718  0.0711 -0.3305 -0.1819
19459PP      PP29563  14.618  10.055  12.885 -0.0913  0.5096  0.1631
19460PP      PP29564   7.401   3.983  12.343 -0.0165 -0.0428  0.0703
19461PP      PP29565   4.938   6.844   2.087  0.2465 -0.0461 -0.0073
19462PP      PP29566  12.685   5.336   3.247 -0.0130  0.1618  0.0093
19463PP      PP29567   7.013  13.222   9.811 -0.2241  0.0193  0.2422
19464PP      PP29568  15.090  14.575   8.902  0.1890  0.3126  0.0707
19465PP      PP29569   4.991  12.917  12.669  0.1352  0.0008 -0.0289
19466PP      PP29570  10.350   9.768   1.206 -0.0891 -0.0528 -0.1361
19467PP      PP29571   6.717  14.091  10.295 -0.1476 -0.1527  0.1703
19468PP      PP29572  14.614   4.088   3.299  0.1180  0.1344 -0.1442
19469PP      PP29573  11.422   7.925   9.508 -0.2484 -0.1857 -0.0694
19470PP      PP29574   4.302   4.719   0.346  0.1619  0.2403  0.1083
19471PP      PP29575   9.488   4.914   0.135  0.2387 -0.0868 -0.4002
19472PP      PP29576  10.707   5.451   0.422  0.1201  0.1212 -0.2493
19473PP      PP29577   5.919  12.857  12.020 -0.1254  0.1835  0.1695
19474PP      PP29578  12.055  10.684  10.323  0.1171  0.1969  0.0200
19475PP      PP29579   2.324  10.327  12.363  0.0301  0.4100  0.0093
19476PP      PP29580  11.554  11.194  12.925  0.0093  0.2754 -0.1797
19477PP      PP29581   1.731  15.741   0.776  0.1318 -0.2983  0.0916
19478PP      PP29582   1.021   0.560   8.972  0.0637 -0.0296 -0.0488
19479PP      PP29583   3.859  14.236   8.675 -0.1160  0.2776 -0.0382
19480PP      PP29584   4.208   6.759   1.785  0.2244 -0.0249  0.0974
19481PP      PP29585  14.932   4.133  10.013 -0.2771  0.4834  0.2149
19482PP      PP29586  15.387  13.192   1.551 -0.2144  0.0217  0.4345
19483PP      PP29587  12.907  11.273   3.448  0.0510  0.0424 -0.0501
19484PP      PP29588  11.504   8.838   0.853 -0.1621 -0.0581 -0.0178
19485PP      PP29589   0.991   6.385   0.518  0.1061 -0.2818  0.0197
19486PP      PP29590   5.386   9.599   2.946  0.1511 -0.3361  0.0834
19487PP      PP29591   7.245  12.622   1.753  0.1105  0.1560  0.0885
19488PP      PP29592   2.761   5.383   0.100  0.0709 -0.4093  0.0343
19489PP      PP29593   4.908  13.527   0.127 -0.1078  0.2545  0.0118
19490PP      PP29594   5.146   8.410  11.558 -0.2103  0.0579 -0.1172
19491PP      PP29595   4.696   9.127   3.674 -0.1077  0.0206 -0.0387
19492PP      PP29596  14.290   1.415  10.599  0.0482  0.0390  0.0825
19493PP      PP29597   6.466  14.360   2.970  0.2910 -0.1591  0.1646
19494PP      PP29598  15.646   2.715  10.288  0.0633 -0.1267 -0.0034
19495PP      PP29599   3.852   0.584   0.437 -0.1877 -0.0135 -0.0649
19496PP      PP29600  12.666  12.138  13.116  0.1631 -0.0071 -0.1947
19497PP      PP29601   6.729  15.749  12.404  0.2404  0.0937  0.3076
19498PP      PP29602   8.294   0.249   0.056 -0.0230  0.0355 -0.2580
19499PP      PP29603   1.690   5.632   2.755  0.2462  0.1686 -0.0044
19500PP      PP29604   0.649  12.371   4.459  0.0275  0.2174  0.1607
19501PP      PP29605  13.692   9.357  12.317 -0.1661  0.0118  0.2442
19502PP      PP29606  13.622  13.602  13.384 -0.6919  0.0929 -0.0218
19503PP      PP29607   9.854   7.145  11.054 -0.1348 -0.1441  0.0494
19504PP      PP29608  14.236   0.918  10.651 -0.0621  0.3064 -0.0860
19505PP      PP29609   9.743   1.747  11.073  0.1768  0.1187  0.0425
19506PP      PP29610   8.082   3.824  11.021  0.2525  0.1922  0.0884
19507PP      PP29611   6.859   8.681  10.212  0.0695 -0.4829 -0.2753
19508PP      PP29612   2.692  11.319   0.740  0.0403  0.0950  0.0597
19509PP      PP29613   6.303   4.382  11.350 -0.1205  0.1508  0.0834
19510PP      PP29614  10.274   7.083  11.793 -0.0967 -0.0085  0.2037
19511PP      PP29615   5.984   4.190   3.741 -0.0759  0.0557 -0.1795
19512PP      PP29616   3.711   1.780   2.274 -0.2277 -0.2568 -0.1044
19513PP      PP29617  11.531   2.690   4.352 -0.1321 -0.0310 -0.1528
19514PP      PP29618  13.367   9.724  12.198 -0.0297 -0.0458  0.0983
19515PP      PP29619   5.541  13.962   9.566 -0.1217  0.4019  0.1259
19516PP      PP29620   2.940   0.042   0.113 -0.1456 -0.0563  0.0053
19517PP      PP29621  14.555   4.491   9.549 -0.0328  0.2117 -0.0823
19518PP      PP29622  15.640   4.563  13.176  0.1171  0.2129  0.1677
19519PP      PP29623   7.656  11.930   0.137  0.1037 -0.2281 -0.1729
19520PP      PP29624   8.460   3.726   9.644  0.0889  0.2374 -0.1121
19521PP      PP29625  13.355  14.823   3.649  0.0587 -0.1259  0.2251
19522PP      PP29626   1.493   1.735   3.794  0.2242  0.1537 -0.0558
19523PP      PP29627   2.630   8.589   0.217  0.0117 -0.2557 -0.1482
19524PP      PP29628  14.116   1.150  10.221  0.0320 -0.0387 -0.0605
19525PP      PP29629  13.416   7.785   3.523 -0.1254 -0.2283  0.1682
19526PP      PP29630   1.330   1.418   1.395 -0.2671 -0.1730 -0.2187
19527PP      PP29631  11.062   9.544  11.520  0.2959 -0.0089 -0.2248
19528PP      PP29632   7.998   2.280  12.185  0.1508  0.1115  0.0447
19529PP      PP29633  14.644  13.654   9.359  0.2311 -0.4578  0.3117
19530PP      PP29634   1.484   0.147  13.096 -0.0684  0.1368  0.0246
19531PP      PP29635   3.322  10.352   1.611 -0.0636  0.0587  0.0142
19532PP      PP29636   0.691   2.581   1.594 -0.0024  0.2217 -0.1816
19533PP      PP29637   9.768  11.598   0.013 -0.0813  0.0047  0.0815
19534PP      PP29638   5.000   5.119   9.527 -0.0078  0.1765 -0.0094
19535PP      PP29639  15.727   9.173  10.174 -0.3301  0.1449 -0.1468
19536PP      PP29640  10.139   5.824   1.531  0.1799 -0.1495 -0.0101
19537PP      PP29641  12.864   6.965  11.279  0.1704 -0.1229  0.3701
19538PP      PP29642  14.026  13.235  13.352  0.1907 -0.0490 -0.0320
19539PP      PP29643   7.862   0.374   0.353 -0.2211  0.1655 -0.2018
19540PP      PP29644   2.657   7.251   0.190  0.0561  0.0179 -0.2703
19541PP      PP29645   1.601   0.581   9.173 -0.1633  0.0983 -0.2024
19542PP      PP29646  11.092   7.751  10.927  0.0250  0.1621  0.1004
19543PP      PP29647   6.921   0.626   8.754 -0.0110 -0.1030  0.1298
19544PP      PP29648   2.888   0.535   1.573  0.3505  0.0951  0.0391
19545PP      PP29649  12.219   1.343   3.261 -0.3029 -0.0971 -0.0414
19546PP      PP29650  10.028   4.660   1.187 -0.1356  0.1248 -0.3570
19547PP      PP29651  11.134   8.944   3.718  0.1753  0.0256 -0.3688
19548PP      PP29652  12.061  14.339   2.116 -0.0240 -0.0231  0.0817
19549PP      PP29653   0.321   7.619  10.567 -0.1780 -0.1947  0.0456
19550PP      PP29654   5.524  12.783  13.418  0.1160  0.0190  0.1727
19551PP      PP29655  11.958  14.521  10.526 -0.0616 -0.1869 -0.0282
19552PP      PP29656  12.157   9.041   0.229 -0.1323  0.1860  0.0545
19553PP      PP29657   3.780   6.397  11.436 -0.1336 -0.4089  0.1338
19554PP      PP29658   1.514   4.510  11.082  0.1829  0.3943  0.0699
19555PP      PP29659   9.420  10.684   4.099 -0.0298  0.1279  0.4828
19556PP      PP29660   4.238  10.844  12.812  0.3442  0.1593  0.1766
19557PP      PP29661   6.461   6.040  12.267  0.1518  0.2076 -0.2170
19558PP      PP29662   3.281  11.358   3.880 -0.3461  0.1249 -0.0138
19559PP      PP29663   6.592   4.786   4.170 -0.3274  0.4618  0.1771
19560PP      PP29664   1.349  10.648   9.803  0.1230 -0.2154  0.3195
19561PP      PP29665   8.552  10.949  11.400  0.1721 -0.2230 -0.2443
19562PP      PP29666   8.458   1.681   9.630 -0.0796 -0.2554  0.0108
19563PP      PP29667   5.293   6.924   2.864  0.1347  0.2313 -0.2217
19564PP      PP29668   7.906   6.323   4.393  0.0200  0.1286 -0.2440
19565PP      PP29669   3.921   9.276   1.139  0.0085 -0.0827 -0.0192
19566PP      PP29670  11.639   4.221  10.352  0.2713  0.0709  0.0311
19567PP      PP29671   8.610  12.304   3.651 -0.4424 -0.0613 -0.1716
19568PP      PP29672  14.951   8.724  12.458 -0.0839  0.2006  0.0115
19569PP      PP29673   1.730   7.804  11.688  0.0677 -0.2058 -0.4232
19570PP      PP29674   5.909   9.586   2.321 -0.2011  0.1523 -0.0340
19571PP      PP29675  10.687   5.187   9.439  0.2545 -0.1039 -0.2526
19572PP      PP29676  13.022  11.930   4.104 -0.0935  0.1645 -0.3333
19573PP      PP29677  14.386   8.986   4.013  0.2928 -0.0370  0.0184
19574PP      PP29678  15.072  10.150  12.132 -0.1564  0.0968  0.1666
19575PP      PP29679   9.513   9.363  12.347  0.1435  0.0865  0.1028
19576PP      PP29680   8.102   6.520  13.321  0.1007 -0.0879  0.4203
19577PP      PP29681   4.617   0.912  12.678  0.2111 -0.1899 -0.0758
19578PP      PP29682  11.121   7.800   4.183  0.3700  0.2774 -0.5228
19579PP      PP29683  15.849   3.756   2.121  0.0832  0.1026 -0.0185
19580PP      PP29684  14.622   3.621   2.831 -0.0364  0.0066  0.1485
19581PP      PP29685  13.861   8.842  11.381  0.0857  0.0877 -0.2544
19582PP      PP29686   2.491   3.881   2.561  0.0982  0.0377 -0.1070
19583PP      PP29687   5.339   2.563   3.672 -0.0530 -0.1449  0.0880
19584PP      PP29688  11.994   7.819   3.018 -0.1485 -0.0640  0.0849
19585PP      PP29689   7.417   5.469   9.564 -0.0329 -0.0114  0.3702
19586PP      PP29690  13.514   4.629   1.968  0.0616  0.0795  0.5362
19587PP      PP29691   7.531   9.498   4.455 -0.0631  0.4362 -0.2063
19588PP      PP29692  15.426  14.109   9.924 -0.0817  0.2835  0.0197
19589PP      PP29693  12.659   8.334   9.383  0.2867  0.0149  0.2502
19590PP      PP29694   5.057   5.743  11.595 -0.0384  0.0029  0.0212
19591PP      PP29695   4.465   2.667   3.454  0.1256  0.1090  0.1293
19592PP      PP29696   4.981   2.096  10.304 -0.0406  0.1365  0.2223
19593PP      PP29697  12.073   9.167   2.726 -0.1392 -0.0138  0.2752
19594PP      PP29698   0.260  10.452  13.424 -0.1662  0.2111  0.1276
19595PP      PP29699   3.786   5.646   3.389  0.1698  0.2683  0.0397
19596PP      PP29700  11.898   3.400   8.610  0.1766 -0.2018  0.4275
19597PP      PP29701   4.459   3.083   1.478  0.3425 -0.1900  0.0955
19598PP      PP29702   7.331   0.237   0.050  0.1685  0.0599 -0.1365
19599PP      PP29703   4.566  13.242   3.475  0.5205  0.0260  0.0949
19600PP      PP29704   2.278   4.724  11.747 -0.0737 -0.0120  0.3494
19601PP      PP29705   9.653   7.655  11.924 -0.0027 -0.4297 -0.1534
19602PP      PP29706   2.916   5.941   5.433  0.0962 -0.1011  0.1594
19603PP      PP29707  12.733  12.788   9.998 -0.1459 -0.2323  0.1174
19604PP      PP29708   7.148   8.285   2.864  0.0042 -0.0871 -0.2328
19605PP      PP29709   4.511   4.735  11.707  0.1151 -0.0761 -0.2161
19606PP      PP29710   4.091  15.609   9.188 -0.1609 -0.1538 -0.1035
19607PP      PP29711   6.802   3.143  12.023 -0.1019 -0.0014 -0.3614
19608PP      PP29712  13.434   8.777   3.102  0.1505  0.3288  0.1243
19609PP      PP29713   2.557  10.564   4.994  0.0244 -0.0048 -0.2743
19610PP      PP29714  15.330  11.597   0.674  0.1845  0.1389  0.0224
19611PP      PP29715   0.948   7.181   1.685 -0.0503 -0.2340  0.3690
19612PP      PP29716   1.302  15.609   0.937 -0.0091 -0.0682 -0.5047
19613PP      PP29717   5.179  13.863   3.377 -0.1506  0.2108  0.2960
19614PP      PP29718  14.177   5.263  10.175  0.0512  0.1057  0.3708
19615PP      PP29719   4.170   9.997   3.055 -0.0990  0.0843 -0.3509
19616PP      PP29720  11.907  13.703  12.475  0.3303 -0.0547  0.3382
19617PP      PP29721   5.853   4.266   4.193 -0.0615 -0.2184  0.1707
19618PP      PP29722   4.929   5.391  12.008 -0.1591 -0.1506  0.3304
19619PP      PP29723  14.251   7.777   4.833  0.5155 -0.0411 -0.0729
19620PP      PP29724  12.186   7.495  13.286 -0.0061  0.0755 -0.0387
19621PP      PP29725  12.470   4.602   4.894 -0.2883 -0.1476 -0.0404
19622PP      PP29726  13.242   1.370   9.714 -0.0132  0.0685  0.1487
19623PP      PP29727   7.791  10.701   2.290  0.2494 -0.3201 -0.0549
19624PP      PP29728   0.410   8.029   9.395  0.1650 -0.3003  0.2664
19625PP      PP29729   4.117   3.997  10.070 -0.0256 -0.1219 -0.0721
19626PP      PP29730  14.580   7.044   9.864  0.1082  0.3238 -0.0228
19627PP      PP29731  10.723   2.859   0.617  0.1884  0.1422  0.0632
19628PP      PP29732  12.269   8.727   0.669  0.2376 -0.0294 -0.1315
19629PP      PP29733  15.123   5.231   0.946  0.0075  0.1642  0.2746
19630PP      PP29734  15.047  10.538   2.789  0.2955 -0.0008 -0.1263
19631PP      PP29735   2.463   3.823  10.180 -0.2915 -0.0849 -0.2565
19632PP      PP29736   6.670  13.155   1.301  0.0072 -0.1593 -0.0992
19633PP      PP29737   2.304   3.822   3.430 -0.0632  0.0415  0.1180
19634PP      PP29738  11.432  10.440  13.004 -0.2197 -0.1162 -0.2433
19635PP      PP29739   9.309   0.698  11.289 -0.0961  0.4983 -0.5662
19636PP      PP29740   7.672   6.194   3.897 -0.2184  0.1576 -0.0598
19637PP      PP29741  13.144   8.214   1.724 -0.3108  0.3526 -0.0186
19638PP      PP29742  11.855   2.757  11.553  0.3632 -0.4078  0.1826
19639PP      PP29743   0.491   9.156   2.231  0.0295  0.0868  0.2804
19640PP      PP29744  13.557  12.396   9.045 -0.1681 -0.1034 -0.1022
19641PP      PP29745   3.476   4.345   3.067  0.3048  0.0438 -0.0395
19642PP      PP29746   2.103   3.380  11.356 -0.0506  0.0935  0.0934
19643PP      PP29747  13.146  10.770   4.108 -0.1137 -0.1434 -0.2321
19644PP      PP29748  11.855  15.238  12.337 -0.2369  0.1435 -0.1398
19645PP      PP29749  15.426  13.541   2.571 -0.2434 -0.0817 -0.2222
19646PP      PP29750  10.586   4.706   9.470  0.0989 -0.1104  0.0901
19647PP      PP29751   4.672  13.750   3.721  0.1325  0.1650 -0.1275
19648PP      PP29752   1.435   1.854  12.444 -0.0255 -0.2214  0.1870
19649PP      PP29753  10.715  14.201   2.495  0.0439  0.0159  0.0318
19650PP      PP29754   0.464  15.827   0.274 -0.1233 -0.3039  0.0340
19651PP      PP29755   5.058  15.117   9.910 -0.2036  0.1161  0.1833
19652PP      PP29756   6.258   0.382   0.190 -0.2490 -0.0427 -0.1684
19653PP      PP29757   0.210  15.689   1.307  0.0873 -0.0107  0.2243
19654PP      PP29758   7.750  12.715   9.060  0.1703  0.2743  0.3931
19655PP      PP29759   0.155  15.797  10.956  0.0055  0.0373 -0.2215
19656PP      PP29760   8.470   9.877  11.325 -0.2802  0.0011  0.3371
19657PP      PP29761  13.899  14.122  13.008 -0.1398 -0.0111 -0.1029
19658PP      PP29762  13.567   2.838   4.090  0.1172 -0.2472  0.0698
19659PP      PP29763   9.919   4.812  12.810 -0.1328  0.2121 -0.0815
19660PP      PP29764  13.167  12.870  12.958  0.1265  0.0968  0.1051
19661PP      PP29765   5.374   1.852   9.931  0.0444  0.0939 -0.2262
19662PP      PP29766   8.002   2.607   3.358 -0.0533 -0.2165 -0.4153
19663PP      PP29767   2.344   5.251  10.701 -0.0617 -0.3449 -0.0331
19664PP      PP29768   4.843  15.248   3.893 -0.1192  0.1612 -0.0613
19665PP      PP29769   4.244  11.106  10.163 -0.0238  0.0487 -0.0502
19666PP      PP29770   8.394   0.860   2.875 -0.0534 -0.1271 -0.2452
19667PP      PP29771  12.078   2.177   1.376  0.0251 -0.0130  0.1818
19668PP      PP29772  13.997   5.117  10.607  0.1151 -0.0203  0.0229
19669PP      PP29773  10.835   6.125   4.086 -0.1297 -0.2359 -0.0791
19670PP      PP29774  12.935   3.824   9.941 -0.2388 -0.1176  0.1341
19671PP      PP29775  10.960   2.716   9.196 -0.0724  0.1484 -0.1018
19672PP      PP29776  11.815   0.391   9.762  0.0085 -0.3881  0.1898
19673PP      PP29777  12.054  14.634   0.535 -0.1164 -0.0815 -0.0347
19674PP      PP29778  14.261   9.452   0.982  0.1017  0.1555  0.2891
19675PP      PP29779  14.944  12.615   3.557 -0.2783 -0.0162 -0.1742
19676PP      PP29780  10.297   3.988  11.531  0.1585  0.0114  0.2182
19677PP      PP29781   6.149  13.025   1.196 -0.0128  0.3923  0.0010
19678PP      PP29782  14.689   3.691  12.086 -0.0125 -0.0932 -0.2867
19679PP      PP29783   3.647   0.164   1.238  0.1286  0.0276  0.0154
19680PP      PP29784   6.436   5.395  13.029  0.0566 -0.0384 -0.0455
19681PP      PP29785   2.405  14.332   3.201 -0.0255 -0.1008 -0.0437
19682PP      PP29786   6.856  14.733  10.504  0.2840  0.0105  0.1277
19683PP      PP29787  10.338   1.327   9.342 -0.1637  0.2446  0.0605
19684PP      PP29788   7.114  12.134   9.739  0.3330  0.2864  0.3624
19685PP      PP29789   0.151   0.838   2.694 -0.2589  0.0939  0.0668
19686PP      PP29790   5.630  11.030  12.883 -0.0553  0.0352 -0.1378
19687PP      PP29791   0.518  11.617  12.282 -0.0653 -0.1399 -0.0544
19688PP      PP29792  12.910   6.794   0.707  0.2040 -0.2219 -0.1056
19689PP      PP29793   8.962   2.876  10.943 -0.0360  0.2008  0.1208
19690PP      PP29794  14.425   7.698   4.100  0.1422 -0.0538  0.1071
19691PP      PP29795  13.768  12.563  11.407 -0.1517 -0.1332  0.0403
19692PP      PP29796  14.603   2.640   1.032 -0.0219  0.1140 -0.2677
19693PP      PP29797   2.304   0.064   2.403 -0.1765 -0.3801 -0.0026
19694PP      PP29798   5.707   9.990   2.509  0.4248 -0.0269  0.1800
19695PP      PP29799   2.851   9.403   2.468 -0.0027  0.1243  0.2132
19696PP      PP29800   8.849  15.234   3.908  0.1154  0.1527 -0.0663
19697PP      PP29801  11.769   6.281  10.144 -0.0431  0.2699  0.2084
19698PP      PP29802   9.436   8.938  12.949  0.0023  0.0727 -0.0376
19699PP      PP29803   0.058  10.746  12.663  0.0174 -0.0441  0.0589
19700PP      PP29804   9.496  10.084   1.644  0.1702  0.3615 -0.0847
19701PP      PP29805   9.829  13.250  12.724 -0.0772 -0.1689  0.0173
19702PP      PP29806   6.789  11.682   8.920  0.0158  0.0407  0.0224
19703PP      PP29807  12.866   2.952   3.612 -0.3246  0.1343  0.2894
19704PP      PP29808  11.561   3.782  11.845  0.1214 -0.2405  0.0325
19705PP      PP29809   4.185  12.240   9.281 -0.0692  0.0421 -0.4157
19706PP      PP29810   9.296   3.075   2.263  0.0999 -0.1150  0.3709
19707PP      PP29811  10.591   8.900  10.456  0.0602  0.0104  0.0177
19708PP      PP29812   1.796  15.729  10.058 -0.0340  0.4750  0.1861
19709PP      PP29813   4.456  13.985  11.230  0.0158  0.0875  0.2600
19710PP      PP29814  15.195   4.261   4.608 -0.1193  0.1080 -0.0924
19711PP      PP29815   4.972  11.559   4.655  0.1744  0.2846 -0.2040
19712PP      PP29816   4.444  10.743   0.358 -0.0268  0.1716  0.1531
19713PP      PP29817   1.804  12.837   3.050  0.1453 -0.0574  0.5814
19714PP      PP29818   1.784  12.175   3.161  0.0872  0.1862  0.3865
19715PP      PP29819   1.952   9.088   2.323  0.1150  0.4066 -0.0270
19716PP      PP29820   5.905   6.983   2.309 -0.0762  0.0557  0.5025
19717PP      PP29821  10.336   4.064   2.181  0.0059  0.0546  0.2205
19718PP      PP29822  10.164   9.795   4.738 -0.0560  0.1246 -0.2306
19719PP      PP29823  14.993   8.914  10.897 -0.2446  0.1787  0.0986
19720PP      PP29824   6.820   9.224  13.146 -0.1433 -0.3185 -0.0518
19721PP      PP29825   9.883  10.935   3.204 -0.2663 -0.6343  0.0406
19722PP      PP29826  11.289  14.624   1.233  0.0196 -0.1088 -0.0154
19723PP      PP29827   2.772   4.384  10.059 -0.0091  0.1388  0.0123
19724PP      PP29828   9.943  12.166   8.058 -0.1334  0.0352  0.3312
19725PP      PP29829   6.134   5.388   0.495 -0.0213  0.0228 -0.2571
19726PP      PP29830   4.596  10.817  10.396 -0.1426  0.1173 -0.0064
19727PP      PP29831   1.738   1.419  10.422 -0.0378  0.1568 -0.0168
19728PP      PP29832   3.149   6.734   3.361 -0.2214  0.1106  0.3611
19729PP      PP29833   7.607  11.916   3.383  0.0407  0.0897  0.1250
19730PP      PP29834   7.897   5.307   3.028 -0.1853 -0.1362 -0.2247
19731PP      PP29835   6.645   9.649  11.866 -0.3891 -0.0918 -0.3469
19732PP      PP29836   8.479   7.675   4.591  0.0120  0.6054  0.1711
19733PP      PP29837  10.776   6.147  10.236  0.1154  0.0252 -0.3357
19734PP      PP29838   3.247  12.349   1.151 -0.0058 -0.1284  0.1515
19735PP      PP29839  12.562  12.677   9.256 -0.2802 -0.0410 -0.0366
19736PP      PP29840  14.085   1.426   4.166  0.2335  0.1619 -0.1013
19737PP      PP29841   7.600   4.204  10.104  0.1137 -0.0490  0.2442
19738PP      PP29842  10.569  14.044   0.956  0.0728 -0.3000  0.0941
19739PP      PP29843   0.686   6.945   2.028  0.1381 -0.0515  0.2464
19740PP      PP29844  11.007  15.069  10.862 -0.2329  0.3861 -0.1367
19741PP      PP29845  12.644   5.274   8.943 -0.2627  0.2002 -0.0636
19742PP      PP29846   7.741   9.171  11.940 -0.1152  0.4440  0.0593
19743PP      PP29847   9.022   9.378   0.695 -0.0098 -0.1151  0.0039
19744PP      PP29848   0.846   0.552   2.187  0.3573 -0.1432 -0.1437
19745PP      PP29849   9.531  10.727  10.351 -0.1592 -0.0223 -0.1037
19746PP      PP29850  14.820   5.842   1.609  0.3224  0.0762 -0.0134
19747PP      PP29851   5.878   0.180   9.632  0.2316 -0.0203 -0.1224
19748PP      PP29852  12.774   2.649   1.752 -0.0143  0.1132  0.1181
19749PP      PP29853   0.316  10.124   0.373 -0.1155 -0.0856 -0.2589
19750PP      PP29854   2.124  10.010  13.309 -0.1208 -0.0539 -0.1172
19751PP      PP29855  11.517  12.540   8.611 -0.3729 -0.0270 -0.0581
19752PP      PP29856   9.927   5.423  10.681 -0.4364 -0.1804 -0.0641
19753PP      PP29857   2.711   7.035  12.117  0.0999  0.1927 -0.0572
19754PP      PP29858   8.482   6.002  11.976 -0.0753 -0.1598  0.0728
19755PP      PP29859  11.289  13.089   0.527  0.2759 -0.3876 -0.1304
19756PP      PP29860   7.984   5.028   0.749  0.0221 -0.1387  0.3228
19757PP      PP29861  11.510   3.357  10.976  0.1881  0.2713  0.2365
19758PP      PP29862   1.769  15.753   1.423 -0.1219  0.0703  0.5152
19759PP      PP29863   6.686   4.173  10.171  0.2582  0.0012 -0.1999
19760PP      PP29864   6.625  13.290  12.324  0.1559 -0.1141  0.0823
19761PP      PP29865   7.006  11.597   8.469 -0.1166 -0.1048  0.0268
19762PP      PP29866   3.145  10.211  10.803 -0.0460 -0.2659  0.1201
19763PP      PP29867  13.515   4.960  10.708  0.1400  0.1284  0.2572
19764PP      PP29868   7.741   4.585   0.751  0.1875  0.0840 -0.1315
19765PP      PP29869  12.554  14.927  13.183 -0.2680  0.1471 -0.0657
19766PP      PP29870  10.790   6.203  11.461  0.1577 -0.2307 -0.0331
19767PP      PP29871  10.614  12.057   9.497  0.1115  0.3649  0.0129
19768PP      PP29872   5.968  12.035   0.765 -0.4061  0.2460 -0.0986
19769PP      PP29873   4.294  11.633   4.435  0.0815  0.1149  0.2664
19770PP      PP29874  12.084   8.451   4.410 -0.0345  0.2480  0.0624
19771PP      PP29875   6.678   7.743  13.064  0.1677  0.1387 -0.1039
19772PP      PP29876  14.833   7.388   0.541  0.0497 -0.0944  0.0059
19773PP      PP29877   8.979   6.544   9.647 -0.1222 -0.1720  0.0427
19774PP      PP29878  11.069  15.019   3.085  0.2607 -0.1550  0.0695
19775PP      PP29879  10.035  15.866   1.873  0.1570 -0.2154  0.1849
19776OST    PA129880  10.211  15.762   0.550  0.0972  0.2915  0.1453
19776OST    PA229881  10.326  15.796   0.212  0.0834 -0.1342 -0.1616
19776OST    PA329882  10.087  15.940   0.152  0.2154  0.0976 -0.1330
19776OST    PA429883  10.456  15.888   0.080 -0.1478 -0.0047 -0.2882
19776OST    PA529884  10.752  15.718   0.121 -0.0160 -0.3584 -0.2626
19776OST    PA629885  10.650  15.600   0.293 -0.2009 -0.1067  0.1124
19777OST    PA129886   9.701  10.602   5.063  0.1020 -0.1056  0.0471
19777OST    PA229887   9.933  10.618   4.789 -0.3433 -0.0361 -0.5524
19777OST    PA329888  10.004  10.911   4.743  0.1583 -0.0304 -0.1344
19777OST    PA429889  10.150  10.546   4.743 -0.0988 -0.2523  0.1144
19777OST    PA529890  10.047  10.277   4.627 -0.0675  0.5177 -0.0662
19777OST    PA629891   9.822  10.323   4.656  0.8240  0.1791  0.2819
19778OST    PA129892   6.401  13.661   3.969  0.0194 -0.0269 -0.0300
19778OST    PA229893   6.705  13.748   4.131  0.3402  0.1231 -0.3515
19778OST    PA329894   6.760  13.865   3.857 -0.0012  0.0576 -0.5290
19778OST    PA429895   6.827  13.615   4.127 -0.2265 -0.0436 -0.3658
19778OST    PA529896   6.709  13.494   4.430 -0.2494  0.5653 -0.3242
19778OST    PA629897   6.539  13.639   4.418  0.2229 -0.0737  0.0140
19779OST    PA129898   3.813   3.921   9.448  0.1264 -0.0611  0.0694
19779OST    PA229899   3.520   3.855   9.604  0.0487 -0.3715 -0.3231
19779OST    PA329900   3.347   3.647   9.510 -0.2109  0.1682 -0.0644
19779OST    PA429901   3.502   3.796   9.819  0.1601  0.1071  0.0082
19779OST    PA529902   3.488   4.093   9.930 -0.0173 -0.2827 -0.0677
19779OST    PA629903   3.522   4.200   9.713  0.1313  0.1479  0.4563
19780OST    PA129904  15.162   4.153  12.581  0.2639  0.3002  0.3984
19780OST    PA229905  14.854   3.977  12.641  0.2795  0.2858  0.1037
19780OST    PA329906  14.707   4.049  12.392 -0.4912 -0.4921 -0.0083
19780OST    PA429907  14.666   3.959  12.749  0.0075  0.0618 -0.0349
19780OST    PA529908  14.793   3.815  13.005 -0.0975 -0.0752  0.0573
19780OST    PA629909  14.994   3.832  12.928  0.5116  0.1749 -0.4386
19781OST    PA129910   8.768   5.102   3.936 -0.1735 -0.0228 -0.3096
19781OST    PA229911   8.508   5.204   4.175 -0.2176 -0.0121 -0.2186
19781OST    PA329912   8.686   4.976   4.289 -0.2177 -0.4762 -0.3949
19781OST    PA429913   8.453   5.275   4.344  0.2148  0.0688  0.1769
19781OST    PA529914   8.402   5.550   4.224 -0.3148 -0.3629 -0.1927
19781OST    PA629915   8.469   5.527   3.989 -0.2000 -0.1889 -0.1751
19782OST    PA129916   6.475   9.147   9.086 -0.2515  0.1863  0.1040
19782OST    PA229917   6.308   8.904   9.313 -0.1850  0.0671  0.2867
19782OST    PA329918   6.057   8.817   9.181 -0.1459  0.0434 -0.0349
19782OST    PA429919   6.360   8.709   9.373  0.0314 -0.1238 -0.2173
19782OST    PA529920   6.590   8.777   9.608  0.3843  0.0120  0.6309
19782OST    PA629921   6.560   9.010   9.560  0.1953  0.1758  0.0151
19783OST    PA129922   6.312  10.630   5.727 -0.1601  0.0581 -0.1183
19783OST    PA229923   6.238  10.766   5.425  0.1147  0.0990 -0.0904
19783OST    PA329924   6.293  10.611   5.180 -0.2993 -0.4617  0.1153
19783OST    PA429925   6.206  10.950   5.323 -0.2093  0.1104 -0.1767
19783OST    PA529926   5.943  11.027   5.420  0.0301  0.3893 -0.1629
19783OST    PA629927   5.964  10.893   5.629  0.0739 -0.2348  0.3975
19784OST    PA129928  10.293  14.460   3.748  0.2503  0.1041 -0.2034
19784OST    PA229929  10.413  14.667   4.004 -0.3260  0.1687  0.3944
19784OST    PA329930  10.654  14.580   4.102  0.3114 -0.0071 -0.3953
19784OST    PA429931  10.325  14.710   4.170 -0.2372  0.1154 -0.0171
19784OST    PA529932  10.138  14.926   4.083 -0.3405 -0.0056  0.6038
19784OST    PA629933  10.199  14.918   3.849 -0.0675  0.0581 -0.1884
19785OST    PA129934  12.989   1.337   2.865  0.1429 -0.2881  0.1771
19785OST    PA229935  13.274   1.544   2.918 -0.1611  0.0497 -0.0494
19785OST    PA329936  13.291   1.459   3.201  0.0850 -0.0916  0.0032
19785OST    PA429937  13.486   1.504   2.903  0.1007 -0.1127 -0.1101
19785OST    PA529938  13.531   1.636   2.606  0.1763  0.0860  0.0036
19785OST    PA629939  13.269   1.689   2.576 -0.0319  0.2254 -0.2944
19786OST    PA129940   5.413  11.036  12.139 -0.1676 -0.0509  0.0268
19786OST    PA229941   5.395  10.741  11.931 -0.2695 -0.1644 -0.3134
19786OST    PA329942   5.590  10.607  12.097  0.0889 -0.3888  0.2134
19786OST    PA429943   5.421  10.600  11.766 -0.1098 -0.0391 -0.6312
19786OST    PA529944   5.195  10.783  11.571 -0.3452 -0.2673  0.0436
19786OST    PA629945   5.179  10.901  11.739 -0.4176 -0.3180 -0.3364
19787OST    PA129946   0.186  15.286  12.456  0.2239 -0.2847  0.2395
19787OST    PA229947   0.268  15.602  12.337 -0.1273 -0.1772 -0.0192
19787OST    PA329948   0.551  15.572  12.388 -0.0110  0.0059  0.3150
19787OST    PA429949   0.281  15.823  12.314  0.1031  0.1812 -0.1995
19787OST    PA529950  -0.025  15.839  12.400  0.4253  0.0179 -0.4789
19787OST    PA629951  -0.072  15.617  12.311  0.2599  0.0195  0.0131
19788OST    PA129952   9.278   0.522   1.558 -0.0263  0.1127  0.0340
19788OST    PA229953   8.962   0.395   1.564  0.1069  0.5227 -0.3862
19788OST    PA329954   9.070   0.224   1.763 -0.1696 -0.4833  0.1553
19788OST    PA429955   8.860   0.258   1.477 -0.1563 -0.0244 -0.1262
19788OST    PA529956   8.728   0.482   1.305 -0.2242 -0.1710  0.1131
19788OST    PA629957   8.903   0.653   1.347  0.0138  0.2041 -0.0660
19789OST    PA129958   2.775   8.292  10.914  0.0666 -0.1097 -0.3011
19789OST    PA229959   2.698   8.461  10.639 -0.0505 -0.3018  0.3184
19789OST    PA329960   2.706   8.739  10.781  0.1443 -0.3212  0.1417
19789OST    PA429961   2.563   8.522  10.530  0.2074 -0.1955 -0.2183
19789OST    PA529962   2.717   8.356  10.292  0.1299  0.4274  0.0833
19789OST    PA629963   2.905   8.273  10.425 -0.4193  0.2014  0.4326
19790OST    PA129964  14.583   3.449  13.020  0.0258  0.4453  0.0467
19790OST    PA229965  14.433   3.788  13.096  0.0949 -0.1434 -0.1255
19790OST    PA329966  14.561   3.792  13.364 -0.3693 -0.1217 -0.0922
19790OST    PA429967  14.401   3.986  13.095 -0.3118 -0.0798  0.1134
19790OST    PA529968  14.149   3.918  12.905 -0.0413  0.4401  0.1586
19790OST    PA629969  14.240   3.701  12.863  0.2127  0.0219  0.0241
19791OST    PA129970   0.175  13.124   2.821  0.1448 -0.1554 -0.2542
19791OST    PA229971   0.353  12.974   3.089  0.1401  0.0262 -0.0468
19791OST    PA329972   0.565  12.908   2.913 -0.0199  0.0862  0.1677
19791OST    PA429973   0.399  12.833   3.227  0.0147  0.3942 -0.0883
19791OST    PA529974   0.138  12.839   3.412 -0.5739  0.7497 -0.0083
19791OST    PA629975   0.042  12.990   3.244  0.0608 -0.0991 -0.0477
19792OST    PA129976  10.072  12.195   1.919 -0.2113 -0.2852  0.4361
19792OST    PA229977  10.322  12.421   1.811  0.1690 -0.4150  0.4688
19792OST    PA329978  10.523  12.196   1.745 -0.3973 -0.1936  0.0730
19792OST    PA429979  10.433  12.566   1.797  0.0911 -0.1819 -0.2031
19792OST    PA529980  10.209  12.794   1.820  0.1127  0.4178 -0.0685
19792OST    PA629981  10.023  12.644   1.755  0.2043 -0.3702  0.0890
19793OST    PA129982  10.894  13.671   9.022  0.1088 -0.0713  0.0845
19793OST    PA229983  10.727  13.901   9.265  0.0442  0.0637 -0.1649
19793OST    PA329984  10.471  13.782   9.239 -0.1406 -0.0608 -0.0031
19793OST    PA429985  10.650  14.081   9.310 -0.3829  0.3293 -0.3177
19793OST    PA529986  10.958  14.176   9.432  0.0384 -0.1692 -0.1045
19793OST    PA629987  11.051  13.962   9.407  0.0105  0.0648 -0.0322
19794OST    PA129988  10.934   3.049   1.381  0.3867 -0.3765 -0.2067
19794OST    PA229989  11.139   2.969   1.672  0.2826 -0.0040  0.0007
19794OST    PA329990  11.130   3.232   1.770 -0.7155 -0.6656 -0.2959
19794OST    PA429991  11.319   2.908   1.788 -0.0188  0.3855 -0.1923
19794OST    PA529992  11.318   2.615   1.624  0.1234 -0.0724  0.1057
19794OST    PA629993  11.082   2.623   1.602 -0.1664 -0.0812 -0.1198
19795OST    PA129994   3.201   0.151  10.238  0.0910  0.1619  0.0409
19795OST    PA229995   3.091   0.199  10.598  0.1683  0.2482  0.4404
19795OST    PA329996   3.167   0.489  10.617 -0.1975  0.5391 -0.0055
19795OST    PA429997   3.046   0.158  10.795 -0.1480 -0.2841 -0.0231
19795OST    PA529998   2.922  -0.097  10.733 -0.3782  0.0397  0.0349
19795OST    PA629999   2.921  -0.094  10.482 -0.1441 -0.3806  0.0814
19796OST    PA130000   6.228   3.871   4.150 -0.1475 -0.1016  0.0474
19796OST    PA230001   6.496   4.014   4.262  0.2033 -0.3156  0.1607
19796OST    PA330002   6.632   3.822   4.429 -0.2041  0.2214 -0.1148
19796OST    PA430003   6.661   4.066   4.152 -0.1670 -0.1981 -0.0983
19796OST    PA530004   6.550   4.356   4.120  0.1764 -0.2382 -0.0461
19796OST    PA630005   6.327   4.339   4.246  0.2636  0.1619 -0.0117
19797OST    PA130006  11.571  12.367   0.264 -0.2151  0.1272 -0.1900
19797OST    PA230007  11.320  12.589   0.394  0.2855  0.1734 -0.0386
19797OST    PA330008  11.451  12.762   0.222  0.2069  0.5417  0.3393
19797OST    PA430009  11.122  12.670   0.373 -0.0743  0.0583  0.2071
19797OST    PA530010  10.972  12.430   0.446  0.1515  0.3497 -0.4153
19797OST    PA630011  11.145  12.289   0.504 -0.0024 -0.2755 -0.0924
19798OST    PA130012  11.143  10.945  12.967  0.0172 -0.0273 -0.0119
19798OST    PA230013  10.796  10.924  12.970  0.2365 -0.2566 -0.0269
19798OST    PA330014  10.790  11.225  13.045 -0.3718 -0.3358 -0.3354
19798OST    PA430015  10.649  10.865  13.121 -0.2088 -0.0012  0.2077
19798OST    PA530016  10.630  10.579  13.004 -0.3797 -0.0585 -0.1125
19798OST    PA630017  10.810  10.571  12.845  0.1747 -0.2183 -0.1541
19799OST    PA130018   7.951  14.083   8.631 -0.0088 -0.1711  0.0899
19799OST    PA230019   7.727  13.852   8.773 -0.0356  0.2054 -0.1518
19799OST    PA330020   7.912  13.640   8.865  0.0455 -0.2497  0.1229
19799OST    PA430021   7.596  13.800   8.935  0.0004 -0.3212  0.1388
19799OST    PA530022   7.318  13.868   8.796  0.2938 -0.1046 -0.1415
19799OST    PA630023   7.430  13.954   8.608 -0.1261 -0.0466  0.3182
19800OST    PA130024   0.329   1.448  12.904 -0.2692 -0.0921  0.1081
19800OST    PA230025   0.508   1.478  12.598  0.3874 -0.1089  0.1016
19800OST    PA330026   0.701   1.251  12.661 -0.2853  0.1093  0.2746
19800OST    PA430027   0.637   1.566  12.484 -0.0385  0.2005  0.1266
19800OST    PA530028   0.536   1.856  12.504  0.0734  0.2013  0.1192
19800OST    PA630029   0.346   1.790  12.615 -0.2638  0.1258 -0.2267
19801OST    PA130030   7.383  13.930  10.242 -0.1662  0.0541 -0.0691
19801OST    PA230031   7.594  13.784  10.495 -0.0221 -0.0438  0.7577
19801OST    PA330032   7.386  13.924  10.674 -0.0844 -0.3137 -0.3668
19801OST    PA430033   7.758  13.867  10.585  0.2398 -0.5126  0.2109
19801OST    PA530034   8.001  13.699  10.412  0.2375  0.3860 -0.3927
19801OST    PA630035   7.838  13.645  10.273  0.7375 -0.3940 -0.0127
19802OST    PA130036  14.638   7.999   0.134  0.1840  0.1943 -0.2131
19802OST    PA230037  14.375   8.222   0.071  0.3327  0.2361 -0.2905
19802OST    PA330038  14.550   8.263  -0.161  0.5030 -0.0747 -0.0069
19802OST    PA430039  14.218   8.323   0.005 -0.3740 -0.2600  0.1699
19802OST    PA530040  14.012   8.258   0.253  0.0005  0.0380  0.0295
19802OST    PA630041  14.171   8.126   0.353  0.2846  0.0457  0.0190
19803OST    PA130042   7.869  12.874   3.424  0.0853 -0.3995  0.5442
19803OST    PA230043   7.721  12.560   3.428  0.1146  0.0563 -0.2712
19803OST    PA330044   7.802  12.576   3.728 -0.0272  0.1726 -0.0813
19803OST    PA430045   7.755  12.365   3.436  0.0042 -0.0828 -0.1977
19803OST    PA530046   7.735  12.316   3.124  0.2270 -0.0708 -0.3165
19803OST    PA630047   7.679  12.549   3.075 -0.0514  0.0266 -0.2433
19804OST    PA130048   2.509  15.892  13.229 -0.1408 -0.2357 -0.0234
19804OST    PA230049   2.452  16.057  12.925  0.1285  0.2846  0.2714
19804OST    PA330050   2.279  15.810  12.901  0.0197  0.0249  0.1580
19804OST    PA430051   2.467  16.091  12.757 -0.1510  0.1027 -0.0382
19804OST    PA530052   2.573  16.385  12.764 -0.1615 -0.0996  0.1805
19804OST    PA630053   2.555  16.376  13.022  0.0954 -0.2218  0.3167
19805OST    PA130054   6.993   3.359   4.364  0.3330 -0.2030 -0.0689
19805OST    PA230055   6.773   3.470   4.106 -0.0014 -0.1784 -0.0961
19805OST    PA330056   6.534   3.464   4.305  0.1599 -0.1255 -0.4461
19805OST    PA430057   6.741   3.653   4.031  0.2466 -0.6191 -0.2820
19805OST    PA530058   6.951   3.671   3.809  0.0001  0.1431  0.2215
19805OST    PA630059   7.042   3.452   3.896 -0.4164  0.1940 -0.0905
19806OST    PA130060   3.277  14.526   2.348 -0.1458 -0.0018 -0.4081
19806OST    PA230061   3.264  14.845   2.534 -0.2188  0.0142 -0.0443
19806OST    PA330062   3.501  14.864   2.359  0.4138 -0.1839 -0.2729
19806OST    PA430063   3.207  15.049   2.496 -0.1023  0.0264  0.1629
19806OST    PA530064   2.937  15.042   2.651  0.1718  0.3177  0.1966
19806OST    PA630065   2.946  14.782   2.661 -0.1857 -0.0631  0.0289
19807OST    PA130066  11.759   2.171  11.158 -0.0810 -0.0094  0.3163
19807OST    PA230067  11.857   2.322  11.478  0.1785  0.0136  0.2213
19807OST    PA330068  12.104   2.216  11.521 -0.3968 -0.1053 -0.3379
19807OST    PA430069  11.787   2.301  11.696  0.1037  0.4299  0.0483
19807OST    PA530070  11.517   2.390  11.649  0.1129  0.0480 -0.5615
19807OST    PA630071  11.498   2.406  11.444 -0.1214 -0.1198  0.1136
19808OST    PA130072   2.916  12.605   3.634  0.1625  0.1834 -0.0474
19808OST    PA230073   3.227  12.467   3.462  0.2779 -0.2876  0.0433
19808OST    PA330074   3.263  12.262   3.661  0.1487  0.3152  0.2006
19808OST    PA430075   3.413  12.473   3.413  0.1377 -0.1958  0.0101
19808OST    PA530076   3.363  12.684   3.197  0.3969 -0.2679 -0.1883
19808OST    PA630077   3.112  12.715   3.214  0.0353 -0.1033  0.1563
19809OST    PA130078   9.576   7.599   9.965 -0.1665  0.1515 -0.0770
19809OST    PA230079   9.871   7.786  10.000 -0.0662 -0.1786 -0.3059
19809OST    PA330080   9.695   8.027   9.905  0.1314 -0.5529 -0.4390
19809OST    PA430081   9.969   7.881  10.124  0.3862  0.1724 -0.1610
19809OST    PA530082  10.101   7.632  10.264  0.2569  0.2241  0.2064
19809OST    PA630083  10.039   7.460  10.115 -0.0290  0.1349  0.1049
19810OST    PA130084   1.948   6.072  12.861 -0.1935 -0.0468  0.0647
19810OST    PA230085   1.955   5.858  13.144  0.3014  0.1387  0.6214
19810OST    PA330086   2.171   5.976  13.317  0.3246  0.0349 -0.1636
19810OST    PA430087   1.981   5.658  13.197 -0.1528  0.0643  0.0550
19810OST    PA530088   1.726   5.572  13.077  0.1215  0.2092 -0.3269
19810OST    PA630089   1.635   5.770  12.976 -0.3453  0.0543 -0.2567
19811OST    PA130090  11.549   6.642  12.925 -0.0656  0.4311  0.0420
19811OST    PA230091  11.558   6.762  12.582  0.0103 -0.2242 -0.2841
19811OST    PA330092  11.319   6.876  12.700  0.2455 -0.1243 -0.0907
19811OST    PA430093  11.661   6.933  12.584  0.2247 -0.1550  0.0622
19811OST    PA530094  11.907   6.735  12.491  0.1334 -0.3094  0.3226
19811OST    PA630095  11.830   6.535  12.551 -0.6093  0.1015 -0.1022
19812OST    PA130096  10.943  14.650   3.447 -0.0849  0.0303 -0.0076
19812OST    PA230097  10.773  14.789   3.726 -0.2223  0.0244  0.3190
19812OST    PA330098  10.538  14.744   3.566 -0.3336 -0.2051  0.9173
19812OST    PA430099  10.722  14.998   3.780  0.3129 -0.2095  0.0767
19812OST    PA530100  10.988  15.006   3.955  0.0692  0.5236  0.5136
19812OST    PA630101  11.074  14.800   3.943  0.0418  0.3146 -0.3671
19813OST    PA130102   7.172   1.453   9.067  0.1130 -0.0033 -0.1691
19813OST    PA230103   7.016   1.152   9.081  0.5006 -0.0720  0.4656
19813OST    PA330104   6.781   1.327   9.033 -0.1469 -0.1754  0.3281
19813OST    PA430105   6.907   0.989   9.088 -0.3017  0.1665  0.3094
19813OST    PA530106   7.191   0.809   9.115 -0.2327 -0.0698 -0.3761
19813OST    PA630107   7.289   1.021   9.219  0.1432  0.3233  0.1258
19814OST    PA130108  11.450   2.094   3.880 -0.0874 -0.1757  0.0857
19814OST    PA230109  11.331   2.248   4.182 -0.0710  0.1913 -0.2982
19814OST    PA330110  11.141   2.361   3.989  0.3003 -0.2745 -0.2773
19814OST    PA430111  11.183   2.226   4.349 -0.1371 -0.4191  0.0220
19814OST    PA530112  11.388   2.086   4.560 -0.0877  0.1571  0.0737
19814OST    PA630113  11.549   2.074   4.392  0.3200  0.1213  0.0838
19815OST    PA130114   5.681   1.000   9.351  0.1030 -0.0602  0.3366
19815OST    PA230115   5.923   0.745   9.253  0.1036  0.0630  0.0732
19815OST    PA330116   6.105   0.907   9.364 -0.0747 -0.3542 -0.3612
19815OST    PA430117   6.010   0.558   9.320 -0.2923  0.1848 -0.0511
19815OST    PA530118   5.778   0.344   9.255 -0.3414 -0.0487  0.0187
19815OST    PA630119   5.640   0.493   9.237  0.2683 -0.2252 -0.0400
19816OST    PA130120  11.604  12.419   4.505 -0.0940  0.0332  0.0832
19816OST    PA230121  11.777  12.737   4.389  0.0764  0.3184  0.1897
19816OST    PA330122  12.047  12.699   4.508  0.0834 -0.1444 -0.1683
19816OST    PA430123  11.817  12.837   4.248  0.0570  0.1094 -0.1381
19816OST    PA530124  11.523  12.902   4.193 -0.2817 -0.7962  0.0755
19816OST    PA630125  11.422  12.782   4.354  0.0545 -0.0697  0.0845
19817OST    PA130126  15.733   3.508  11.506 -0.1597 -0.1520  0.0291
19817OST    PA230127  16.056   3.464  11.634  0.1319  0.1015 -0.4031
19817OST    PA330128  15.904   3.373  11.886  0.1568 -0.2115  0.0238
19817OST    PA430129  16.204   3.551  11.729 -0.0641  0.0898 -0.2144
19817OST    PA530130  16.288   3.768  11.535 -0.0278 -0.1355 -0.0594
19817OST    PA630131  16.132   3.707  11.380  0.1918 -0.0261  0.2101
19818OST    PA130132   3.899   3.844   0.266  0.3486  0.1121  0.1328
19818OST    PA230133   3.833   3.560   0.476  0.3470 -0.1661  0.5000
19818OST    PA330134   4.105   3.495   0.453 -0.0704  0.2465  0.4847
19818OST    PA430135   3.820   3.560   0.672  0.1866 -0.0222  0.2177
19818OST    PA530136   3.521   3.641   0.727  0.3065 -0.1596 -0.1134
19818OST    PA630137   3.519   3.670   0.479  0.0783  0.1956 -0.1716
19819OST    PA130138   0.403   3.168  12.652  0.1671 -0.0093 -0.0416
19819OST    PA230139   0.211   2.974  12.899 -0.0419  0.1443 -0.0420
19819OST    PA330140   0.279   3.168  13.107  0.0981 -0.1961  0.2851
19819OST    PA430141   0.149   2.837  13.019 -0.2106  0.1716  0.0373
19819OST    PA530142  -0.032   2.671  12.798  0.0900 -0.0803  0.1368
19819OST    PA630143   0.035   2.781  12.632 -0.2378 -0.1780  0.1001
19820OST    PA130144   2.134  11.224  11.267  0.2670  0.1399  0.5190
19820OST    PA230145   2.092  11.337  10.916  0.3354 -0.0706  0.1053
19820OST    PA330146   1.993  11.584  11.076  0.0135 -0.6346 -0.0427
19820OST    PA430147   1.979  11.384  10.739  0.0543  0.2318  0.2913
19820OST    PA530148   2.102  11.114  10.587 -0.7023 -0.0670 -0.4804
19820OST    PA630149   2.235  11.054  10.775  0.1417 -0.0636 -0.2838
19821OST    PA130150   7.466  12.875   4.315  0.0020 -0.2477  0.3367
19821OST    PA230151   7.469  12.626   4.587 -0.4852  0.6937  0.2138
19821OST    PA330152   7.192  12.581   4.549  0.0311  0.1956 -0.0682
19821OST    PA430153   7.504  12.550   4.787 -0.1538 -0.4364  0.0146
19821OST    PA530154   7.814  12.702   4.800  0.0373 -0.2066  0.0929
19821OST    PA630155   7.828  12.705   4.572  0.0349 -0.2499 -0.1513
19822OST    PA130156   1.070  12.607  10.741  0.0427  0.1136 -0.0988
19822OST    PA230157   1.172  12.804  10.481 -0.0120  0.1038  0.0146
19822OST    PA330158   1.431  12.770  10.621 -0.1017 -0.0495 -0.4306
19822OST    PA430159   1.182  13.007  10.455  0.1477  0.1186  0.1036
19822OST    PA530160   0.939  13.007  10.226  0.2284 -0.0606 -0.1290
19822OST    PA630161   0.914  12.760  10.255  0.3992 -0.0053 -0.4398
19823OST    PA130162   8.147   8.411   9.212  0.0854 -0.2353 -0.2369
19823OST    PA230163   7.924   8.163   9.169  0.3843 -0.0977  0.0245
19823OST    PA330164   7.980   8.067   8.914 -0.0570 -0.1292 -0.0039
19823OST    PA430165   7.716   8.072   9.180 -0.1830  0.0725 -0.2221
19823OST    PA530166   7.665   8.148   9.470  0.0147  0.0779 -0.1399
19823OST    PA630167   7.889   8.185   9.531 -0.1105 -0.0426  0.1272
19824OST    PA130168   1.232  14.778   4.559 -0.2290 -0.1442  0.2536
19824OST    PA230169   1.593  14.800   4.508  0.0583 -0.0088  0.2538
19824OST    PA330170   1.595  14.972   4.757 -0.0131 -0.5735  0.0210
19824OST    PA430171   1.779  14.725   4.513 -0.1133 -0.0167 -0.0239
19824OST    PA530172   1.785  14.661   4.195  0.3939 -0.4818 -0.3029
19824OST    PA630173   1.578  14.730   4.134  0.3618 -0.1274  0.0111
19825OST    PA130174   6.097   2.614  12.097 -0.1292 -0.2023 -0.0237
19825OST    PA230175   6.222   2.775  11.791  0.2158 -0.3451 -0.0923
19825OST    PA330176   5.923   2.816  11.754 -0.2669  0.2299  0.1969
19825OST    PA430177   6.268   2.864  11.625  0.1733 -0.2536  0.2608
19825OST    PA530178   6.561   2.890  11.719  0.4037 -0.3491 -0.0534
19825OST    PA630179   6.539   2.755  11.908  0.2027 -0.4044 -0.0931
19826OST    PA130180   6.709   4.379  12.826 -0.3279  0.1605  0.1181
19826OST    PA230181   6.897   4.362  12.513  0.1368  0.0894 -0.0799
19826OST    PA330182   6.617   4.275  12.414  0.4292  0.1399  0.0220
19826OST    PA430183   6.988   4.369  12.327  0.0329  0.3738  0.1489
19826OST    PA530184   7.175   4.620  12.398  0.1420  0.2087 -0.1317
19826OST    PA630185   7.075   4.628  12.639 -0.1716 -0.2107  0.0764
19827OST    PA130186  14.558   2.604  13.256 -0.0388 -0.4995 -0.1144
19827OST    PA230187  14.775   2.836  13.128 -0.2155  0.2209 -0.2139
19827OST    PA330188  14.986   2.664  13.229  0.0129  0.1543  0.5839
19827OST    PA430189  14.886   2.985  13.090 -0.0562 -0.2059 -0.0139
19827OST    PA530190  14.661   3.063  12.862  0.4228 -0.0014 -0.0861
19827OST    PA630191  14.495   2.907  12.889 -0.2364 -0.0412  0.1952
19828OST    PA130192  12.798   7.079   3.045  0.3660  0.1742  0.2650
19828OST    PA230193  12.996   6.799   3.026 -0.0871  0.1065 -0.0823
19828OST    PA330194  12.829   6.733   2.776 -0.9631 -0.1452  0.2291
19828OST    PA430195  13.071   6.586   3.052 -0.2442 -0.7706  0.1862
19828OST    PA530196  13.262   6.680   3.290 -0.1426  0.3862  0.0767
19828OST    PA630197  13.227   6.921   3.273 -0.0661  0.4137 -0.2399
19829OST    PA130198  13.330  15.863  11.747 -0.1705 -0.0534 -0.1180
19829OST    PA230199  13.101  15.614  11.851 -0.3109  0.2476  0.0337
19829OST    PA330200  13.017  15.524  11.578 -0.4596 -0.0699 -0.2153
19829OST    PA430201  13.101  15.408  11.919  0.1246  0.3603 -0.0178
19829OST    PA530202  13.081  15.494  12.235  0.0656  0.2792 -0.0799
19829OST    PA630203  13.136  15.717  12.168  0.0025  0.1447 -0.0376
19830OST    PA130204  13.389   4.902   0.235 -0.1878 -0.1028 -0.0138
19830OST    PA230205  13.370   5.130   0.505  0.4109  0.1076 -0.5261
19830OST    PA330206  13.574   4.926   0.604  0.1201  0.1751  0.1691
19830OST    PA430207  13.253   5.145   0.679  0.0927 -0.1611  0.0445
19830OST    PA530208  13.053   5.266   0.518  0.7396  0.0774  0.3070
19830OST    PA630209  13.109   5.294   0.303  0.1422 -0.0721  0.3938
19831OST    PA130210   9.887  13.939   8.828 -0.0711  0.0949  0.0883
19831OST    PA230211   9.886  14.107   9.110  0.2812 -0.0551 -0.3661
19831OST    PA330212  10.154  13.951   9.134  0.2566  0.5211 -0.4887
19831OST    PA430213   9.890  14.210   9.306  0.1048  0.1376 -0.0526
19831OST    PA530214   9.624  14.345   9.236  0.2450 -0.2909 -0.0893
19831OST    PA630215   9.568  14.263   9.026  0.0097  0.5107 -0.0752
19832OST    PA130216  11.094   7.239   1.866  0.2437  0.0345 -0.0798
19832OST    PA230217  10.753   7.351   1.828 -0.0046  0.3133  0.3616
19832OST    PA330218  10.834   7.617   1.772  0.0299  0.1211  0.1106
19832OST    PA430219  10.594   7.337   1.699  0.0512 -0.0542  0.3097
19832OST    PA530220  10.384   7.104   1.833  0.1863 -0.2576 -0.1291
19832OST    PA630221  10.585   7.090   1.997 -0.2872  0.2533  0.2709
19833OST    PA130222  15.640  15.009  11.812 -0.0283  0.1188 -0.0976
19833OST    PA230223  15.575  14.716  11.634 -0.1569 -0.0369 -0.3885
19833OST    PA330224  15.833  14.741  11.514 -0.0705  0.0448 -0.0456
19833OST    PA430225  15.579  14.532  11.652 -0.3207  0.0543  0.1945
19833OST    PA530226  15.250  14.521  11.663 -0.4161 -0.5702 -0.3169
19833OST    PA630227  15.238  14.779  11.729  0.1503 -0.3494 -0.1049
19834OST    PA130228   8.145  10.918  12.108 -0.1990  0.1372 -0.0048
19834OST    PA230229   7.873  10.724  12.211  0.1995  0.0127  0.0582
19834OST    PA330230   7.863  10.435  12.238  0.2112  0.2520  0.0303
19834OST    PA430231   7.756  10.769  12.344  0.2398 -0.1223  0.1283
19834OST    PA530232   7.584  10.942  12.146 -0.1786  0.3816  0.3860
19834OST    PA630233   7.742  10.903  11.939  0.0013 -0.0227 -0.0227
19835OST    PA130234  13.095   1.158   4.089  0.1905 -0.0361 -0.0146
19835OST    PA230235  13.204   0.922   3.834  0.1868 -0.1215 -0.0187
19835OST    PA330236  12.898   0.965   3.744 -0.0456 -0.1388 -0.2122
19835OST    PA430237  13.204   0.740   3.774 -0.1616  0.1659  0.0417
19835OST    PA530238  13.527   0.729   3.850  0.3573  0.0521  0.2582
19835OST    PA630239  13.566   0.955   3.907  0.0620  0.3598  0.0253
19836OST    PA130240   4.441  13.467  10.945 -0.0938 -0.0148  0.3217
19836OST    PA230241   4.219  13.281  11.163  0.0666 -0.0706  0.0508
19836OST    PA330242   4.266  13.431  11.390 -0.5416  0.5570 -0.2176
19836OST    PA430243   4.006  13.291  11.168 -0.4531  0.1594  0.3367
19836OST    PA530244   4.018  13.020  11.001 -0.5853  0.2095  0.3842
19836OST    PA630245   4.246  13.019  10.950  0.1829  0.0340  0.2016
19837OST    PA130246  15.684  11.558   0.337  0.0671 -0.2673 -0.2143
19837OST    PA230247  15.934  11.570   0.101  0.0463 -0.0660  0.0649
19837OST    PA330248  16.136  11.415   0.274 -0.2064 -0.3064  0.2495
19837OST    PA430249  16.034  11.571  -0.053  0.2119  0.0491 -0.0685
19837OST    PA530250  15.933  11.834  -0.187 -0.0436  0.0200  0.2536
19837OST    PA630251  15.749  11.845  -0.002  0.0556 -0.4348  0.3985
19838OST    PA130252  14.802  15.301   4.508 -0.0073  0.0604  0.3627
19838OST    PA230253  14.987  15.278   4.212 -0.3393  0.2150 -0.0270
19838OST    PA330254  15.028  15.002   4.284  0.1965  0.1392  0.2424
19838OST    PA430255  14.969  15.236   4.025  0.0142  0.0481  0.0132
19838OST    PA530256  15.020  15.532   3.966 -0.3184  0.0406  0.0614
19838OST    PA630257  15.032  15.603   4.183  0.4744 -0.2946 -0.1495
19839OST    PA130258   4.250   0.499   9.550 -0.1678 -0.0743  0.0909
19839OST    PA230259   4.505   0.358   9.769  0.1298 -0.1603  0.0691
19839OST    PA330260   4.603   0.658   9.764 -0.1182 -0.1536  0.2286
19839OST    PA430261   4.649   0.288   9.903  0.0181  0.0061 -0.2563
19839OST    PA530262   4.441   0.141  10.082  0.2896  0.1730 -0.0611
19839OST    PA630263   4.249   0.212   9.980 -0.0044 -0.1977 -0.0311
19840OST    PA130264   4.788   2.255  10.772 -0.3969  0.0093 -0.0930
19840OST    PA230265   4.873   2.187  11.126 -0.0402 -0.1612  0.0053
19840OST    PA330266   5.013   1.919  11.103  0.0357 -0.1962 -0.3321
19840OST    PA430267   4.819   2.183  11.306  0.1727 -0.0545 -0.0595
19840OST    PA530268   4.664   2.469  11.377 -0.1674  0.1310 -0.1514
19840OST    PA630269   4.752   2.545  11.163 -0.0802  0.2311 -0.2123
19841OST    PA130270   8.593   8.888   3.171 -0.1506 -0.0402  0.0912
19841OST    PA230271   8.730   9.196   3.194 -0.0956 -0.0833  0.3909
19841OST    PA330272   8.951   9.075   3.010  0.0948  0.4901 -0.0809
19841OST    PA430273   8.737   9.376   3.098 -0.0510 -0.2387 -0.2467
19841OST    PA530274   8.534   9.495   3.306  0.5588 -0.0204 -0.0311
19841OST    PA630275   8.468   9.306   3.419  0.0038 -0.1381  0.0184
19842OST    PA130276   4.797  14.501  12.177  0.1181 -0.0429 -0.0471
19842OST    PA230277   4.499  14.420  12.377  0.1083 -0.2629  0.4024
19842OST    PA330278   4.498  14.592  12.616  0.5806  0.0607 -0.0843
19842OST    PA430279   4.318  14.457  12.316 -0.1388  0.1874  0.0551
19842OST    PA530280   4.258  14.164  12.196 -0.4347  0.0409 -0.5637
19842OST    PA630281   4.501  14.110  12.228  0.0284  0.2758  0.0368
19843OST    PA130282  10.477   5.227   3.224 -0.1909 -0.0386 -0.1401
19843OST    PA230283  10.147   5.142   3.256 -0.0606  0.0536  0.0213
19843OST    PA330284  10.245   4.901   3.381  0.4092 -0.1819 -0.0298
19843OST    PA430285   9.970   5.061   3.173  0.2103 -0.0988 -0.2842
19843OST    PA530286   9.921   5.362   3.084  0.1485 -0.4514  0.1984
19843OST    PA630287  10.113   5.496   3.224 -0.0284  0.1919  0.0921
19844OST    PA130288   5.882   1.753  12.448 -0.2509  0.1432  0.0378
19844OST    PA230289   5.750   1.531  12.659  0.3817 -0.2701 -0.2504
19844OST    PA330290   5.836   1.329  12.492  0.0056  0.1914 -0.1214
19844OST    PA430291   5.833   1.450  12.838  0.0467  0.0166 -0.2402
19844OST    PA530292   5.675   1.656  12.991 -0.1708 -0.4487 -0.4977
19844OST    PA630293   5.537   1.760  12.819  0.2881 -0.0724 -0.2256
19845OST    PA130294   1.768  15.184   4.191 -0.0668 -0.3753 -0.1398
19845OST    PA230295   1.566  15.490   4.297 -0.1004  0.0677  0.2383
19845OST    PA330296   1.791  15.680   4.281 -0.0412  0.1440 -0.1674
19845OST    PA430297   1.452  15.624   4.395 -0.0239  0.2103  0.0098
19845OST    PA530298   1.260  15.385   4.517 -0.0845 -0.1528  0.1266
19845OST    PA630299   1.338  15.192   4.370 -0.0644 -0.4067 -0.2510
19846OST    PA130300  11.827   4.633   0.449 -0.1730 -0.0203 -0.4301
19846OST    PA230301  11.580   4.632   0.215 -0.1656 -0.1098  0.1032
19846OST    PA330302  11.665   4.495  -0.007  0.1190  0.0477  0.5940
19846OST    PA430303  11.490   4.801   0.081 -0.0491  0.0942 -0.1895
19846OST    PA530304  11.236   4.811   0.300  0.4348 -0.0799  0.1039
19846OST    PA630305  11.351   4.672   0.474 -0.1213 -0.1591  0.4021
19847OST    PA130306   5.194   5.556  10.044  0.0491  0.1754  0.0285
19847OST    PA230307   5.337   5.246  10.163 -0.0180  0.2220 -0.1756
19847OST    PA330308   5.527   5.218  10.423  0.2303 -0.1529 -0.5197
19847OST    PA430309   5.466   5.130  10.059 -0.3260  0.1271  0.3232
19847OST    PA530310   5.205   5.019   9.881 -0.0033  0.5607  0.2929
19847OST    PA630311   5.045   5.117   9.980  0.1505  0.1763  0.1099
19848OST    PA130312  13.092   5.600   3.501  0.1440 -0.2465 -0.2209
19848OST    PA230313  13.309   5.341   3.497  0.3332 -0.1555  0.1621
19848OST    PA330314  13.348   5.456   3.221  0.2245  0.4215 -0.2152
19848OST    PA430315  13.378   5.150   3.452  0.3139 -0.0595 -0.4362
19848OST    PA530316  13.159   4.988   3.585 -0.2466  0.0669 -0.0470
19848OST    PA630317  13.081   5.170   3.729  0.4653  0.2799 -0.1704
19849OST    PA130318  12.233   5.252   0.763  0.1254  0.0626 -0.2002
19849OST    PA230319  12.333   4.989   0.953 -0.1676  0.2509  0.5363
19849OST    PA330320  12.426   5.200   1.135 -0.3943  0.0748  0.0633
19849OST    PA430321  12.368   4.836   1.062  0.2884 -0.2845 -0.0059
19849OST    PA530322  12.285   4.616   0.814 -0.1516 -0.1722  0.0554
19849OST    PA630323  12.223   4.787   0.673  0.2286 -0.1421  0.0382
19850OST    PA130324   5.952   3.118  12.042  0.1387  0.1847  0.0374
19850OST    PA230325   5.703   2.903  12.181 -0.1912  0.0961 -0.2016
19850OST    PA330326   5.847   2.853  12.406 -0.3585 -0.1070 -0.1068
19850OST    PA430327   5.591   2.741  12.196  0.3289 -0.1994 -0.0329
19850OST    PA530328   5.437   2.783  11.901  0.0488  0.5117 -0.5275
19850OST    PA630329   5.557   2.978  11.860  0.1919  0.1552  0.0436
19851OST    PA130330   5.559  15.865  12.787  0.0667 -0.2681 -0.2166
19851OST    PA230331   5.861  16.014  12.710 -0.3477  0.1254  0.1679
19851OST    PA330332   5.905  16.109  12.967  0.0049 -0.0578 -0.3420
19851OST    PA430333   5.904  16.190  12.618 -0.1171 -0.3674  0.2267
19851OST    PA530334   5.924  16.095  12.336  0.5462  0.0279 -0.1018
19851OST    PA630335   5.876  15.850  12.394 -0.3041  0.1007 -0.1781
19852OST    PA130336  13.552  13.234   3.804  0.2527 -0.1859 -0.1967
19852OST    PA230337  13.457  13.473   4.036  0.0277  0.3090 -0.2273
19852OST    PA330338  13.537  13.272   4.260  0.2086 -0.4591  0.3112
19852OST    PA430339  13.377  13.586   4.156  0.4515 -0.1068  0.1812
19852OST    PA530340  13.355  13.830   3.977  0.0326  0.2223  0.1299
19852OST    PA630341  13.538  13.762   3.843 -0.1816  0.2512  0.2531
19853OST    PA130342   6.089   3.280  10.675 -0.2849  0.1171  0.0316
19853OST    PA230343   6.361   3.271  10.916  0.0431  0.2736  0.1113
19853OST    PA330344   6.354   2.989  10.778 -0.4886  0.0868  0.1068
19853OST    PA430345   6.534   3.321  10.873 -0.0118 -0.0242  0.1254
19853OST    PA530346   6.490   3.643  10.907 -0.1188 -0.1370  0.0471
19853OST    PA630347   6.272   3.629  10.959 -0.3043  0.1594  0.0937
19854OST    PA130348   3.966  11.646   1.416 -0.1111 -0.3321  0.1132
19854OST    PA230349   3.896  11.306   1.399  0.4067  0.0433 -0.3872
19854OST    PA330350   4.054  11.320   1.162 -0.0964  0.2039 -0.1131
19854OST    PA430351   3.973  11.086   1.453  0.0011  0.0084 -0.0068
19854OST    PA530352   3.886  11.101   1.780  0.4591 -0.2018  0.1393
19854OST    PA630353   3.832  11.337   1.754  0.1554  0.2183 -0.3726
19855OST    PA130354   9.826   6.964  13.336  0.0520 -0.0184 -0.2269
19855OST    PA230355   9.879   7.310  13.365  0.1535 -0.3984  0.1897
19855OST    PA330356   9.614   7.266  13.457  0.1110  0.2596 -0.0920
19855OST    PA430357   9.833   7.479  13.254  0.1969  0.5440 -0.2912
19855OST    PA530358  10.132   7.622  13.285  0.0494 -0.2571 -0.0725
19855OST    PA630359  10.208   7.449  13.384  0.0323  0.1265 -0.0339
19856OST    PA130360   6.057   8.385   9.654  0.0521 -0.0621  0.1559
19856OST    PA230361   6.005   8.762   9.660  0.3203  0.1831  0.1208
19856OST    PA330362   6.258   8.776   9.787 -0.4860 -0.0497  0.0293
19856OST    PA430363   5.981   8.950   9.614  0.0472 -0.0832  0.3165
19856OST    PA530364   5.731   8.878   9.406 -0.1888 -0.0321 -0.2809
19856OST    PA630365   5.721   8.675   9.453  0.0238  0.2550  0.3334
19857OST    PA130366  14.057  14.871   4.191 -0.1447  0.2513  0.2144
19857OST    PA230367  13.807  15.019   4.384  0.2004  0.0488  0.0600
19857OST    PA330368  13.900  14.924   4.675 -0.0089  0.2778  0.0017
19857OST    PA430369  13.711  15.184   4.451 -0.0520 -0.0878  0.3446
19857OST    PA530370  13.521  15.205   4.186 -0.2074 -0.1551  0.4055
19857OST    PA630371  13.597  15.031   4.075  0.0176 -0.0768  0.1093
19858OST    PA130372   2.895   8.987   9.467 -0.0320 -0.0249 -0.0170
19858OST    PA230373   2.549   9.130   9.449 -0.6046 -0.1477  0.2766
19858OST    PA330374   2.540   8.872   9.312 -0.4190 -0.0755  0.2281
19858OST    PA430375   2.350   9.143   9.468  0.1749  0.2230 -0.0455
19858OST    PA530376   2.418   9.440   9.556 -0.3882  0.2734  0.4468
19858OST    PA630377   2.641   9.464   9.551 -0.3511 -0.0540 -0.2542
19859OST    PA130378  13.935   4.554   4.241 -0.0775 -0.0653 -0.3013
19859OST    PA230379  13.810   4.887   4.234 -0.0443 -0.0015 -0.0293
19859OST    PA330380  13.684   4.795   4.451  0.2345 -0.5368 -0.1662
19859OST    PA430381  13.695   5.071   4.217 -0.0485  0.0281  0.2458
19859OST    PA530382  13.870   5.163   3.970 -0.5460 -0.3407  0.1271
19859OST    PA630383  14.034   4.954   3.997  0.1065 -0.0979  0.3564
19860OST    PA130384  12.273  14.045   0.645 -0.0363  0.2164 -0.0459
19860OST    PA230385  12.257  13.683   0.568  0.2292 -0.4889 -0.1155
19860OST    PA330386  12.539  13.690   0.600  0.2417 -0.1462  0.1406
19860OST    PA430387  12.236  13.479   0.501 -0.1077  0.1996 -0.1740
19860OST    PA530388  11.942  13.519   0.597  0.3133  0.3344  0.2108
19860OST    PA630389  11.888  13.730   0.650 -0.2350  0.5902 -0.2146
19861OST    PA130390  11.605  13.813  10.670 -0.4300  0.0238  0.0001
19861OST    PA230391  11.743  13.564  10.434 -0.2744 -0.0576 -0.4180
19861OST    PA330392  12.004  13.483  10.557 -0.1648 -0.2311 -0.0609
19861OST    PA430393  11.787  13.453  10.290  0.1957  0.1556 -0.1265
19861OST    PA530394  11.544  13.448  10.133  0.0379 -0.0578  0.0572
19861OST    PA630395  11.419  13.577  10.298 -0.4664 -0.3706  0.1298
19862OST    PA130396   1.059   3.711   9.145  0.0978 -0.0052  0.1394
19862OST    PA230397   0.946   4.040   9.257 -0.1187  0.2588  0.0662
19862OST    PA330398   0.670   4.017   9.192  0.3252 -0.5062 -0.3844
19862OST    PA430399   0.944   4.234   9.250  0.1334 -0.1605 -0.3254
19862OST    PA530400   1.161   4.309   9.429 -0.2385 -0.0279  0.2189
19862OST    PA630401   1.210   4.098   9.512  0.2300  0.4945  0.0888
19863OST    PA130402   4.354   7.564   4.735  0.0267  0.0295 -0.1952
19863OST    PA230403   4.146   7.280   4.626  0.1264  0.2353 -0.0564
19863OST    PA330404   4.125   7.112   4.899  0.0254 -0.1601  0.1783
19863OST    PA430405   3.972   7.219   4.565 -0.2126 -0.0290 -0.1766
19863OST    PA530406   4.015   7.242   4.257  0.0098 -0.4582  0.1560
19863OST    PA630407   4.243   7.324   4.298  0.0307 -0.1670  0.2861
19864OST    PA130408  11.627   0.874  11.062  0.1034  0.0095 -0.0014
19864OST    PA230409  11.304   1.046  10.950 -0.6425 -0.2793 -0.1332
19864OST    PA330410  11.312   1.117  11.228  0.5572 -0.4338 -0.0543
19864OST    PA430411  11.133   1.106  10.907  0.0153  0.1713 -0.1134
19864OST    PA530412  11.193   1.069  10.595  0.3654  0.0494  0.1018
19864OST    PA630413  11.378   0.955  10.628  0.2709  0.2178  0.2766
19865OST    PA130414  14.709   9.890  11.364  0.2920 -0.1876 -0.1033
19865OST    PA230415  14.606  10.201  11.169 -0.0876 -0.0969 -0.0232
19865OST    PA330416  14.351  10.053  11.150  0.1799 -0.3009  0.4334
19865OST    PA430417  14.615  10.270  10.978  0.0994 -0.0497  0.0639
19865OST    PA530418  14.928  10.298  11.063 -0.1317 -0.3438  0.5205
19865OST    PA630419  14.953  10.270  11.277  0.0476  0.0449  0.2263
19866OST    PA130420   0.360   0.201  11.662 -0.0999 -0.2608 -0.3212
19866OST    PA230421   0.084   0.143  11.884 -0.1868 -0.2872  0.1750
19866OST    PA330422  -0.058  -0.006  11.693  0.2790  0.1250 -0.3686
19866OST    PA430423   0.037   0.061  12.033  0.4764  0.6257 -0.2987
19866OST    PA530424   0.114   0.254  12.289 -0.1363 -0.0629  0.3236
19866OST    PA630425   0.221   0.403  12.120 -0.0959  0.0240  0.3551
19867OST    PA130426   0.504   0.645  12.406  0.1664 -0.2221  0.1507
19867OST    PA230427   0.628   0.462  12.683 -0.0153 -0.4735 -0.1351
19867OST    PA330428   0.884   0.561  12.763  0.0112 -0.2380  0.4160
19867OST    PA430429   0.544   0.490  12.855  0.0205  0.0478 -0.4592
19867OST    PA530430   0.392   0.212  12.786  0.2786 -0.2875 -0.2269
19867OST    PA630431   0.399   0.229  12.564  0.1431  0.0169  0.0447
19868OST    PA130432   9.130  13.516   1.410  0.0042 -0.2789  0.0900
19868OST    PA230433   9.132  13.624   1.748  0.3174 -0.0537 -0.0025
19868OST    PA330434   8.879  13.409   1.767  0.1155  0.0462  0.4514
19868OST    PA430435   9.215  13.576   1.898  0.7127 -0.0782 -0.2467
19868OST    PA530436   9.442  13.790   1.874 -0.3004  0.0555 -0.1050
19868OST    PA630437   9.357  13.888   1.672  0.2921  0.3591  0.1220
19869OST    PA130438   2.236   9.828  10.325 -0.0116  0.0766 -0.5145
19869OST    PA230439   2.359   9.545  10.504 -0.2084  0.0659 -0.0153
19869OST    PA330440   2.516   9.661  10.721  0.2706  0.1667  0.0147
19869OST    PA430441   2.483   9.392  10.466  0.0069  0.1792 -0.1177
19869OST    PA530442   2.225   9.232  10.320 -0.0326  0.0389  0.1494
19869OST    PA630443   2.065   9.407  10.368  0.1594 -0.0079  0.4278
19870OST    PA130444  15.557   9.628   0.067  0.1398  0.3217  0.0682
19870OST    PA230445  15.683   9.561  -0.274 -0.2728  0.2272  0.0451
19870OST    PA330446  15.738   9.834  -0.363  0.1417 -0.0040 -0.1232
19870OST    PA430447  15.808   9.459  -0.391 -0.5444 -0.3978 -0.0362
19870OST    PA530448  15.730   9.156  -0.412  0.0705  0.0444  0.0680
19870OST    PA630449  15.550   9.204  -0.266  0.0597 -0.3254  0.3442
19871OST    PA130450   6.669   2.005  12.109 -0.1482 -0.0651 -0.3226
19871OST    PA230451   6.530   1.720  11.939 -0.1432  0.1855 -0.1625
19871OST    PA330452   6.781   1.610  12.066 -0.0242  0.0581 -0.1358
19871OST    PA430453   6.409   1.563  12.008  0.3270  0.0779  0.4729
19871OST    PA530454   6.153   1.674  11.853 -0.3300  0.1534  0.3301
19871OST    PA630455   6.241   1.843  11.736 -0.3918 -0.4308 -0.1682
19872OST    PA130456   5.152  11.947   2.062  0.1382 -0.1175 -0.1734
19872OST    PA230457   4.845  12.108   2.179  0.0751 -0.1912 -0.0010
19872OST    PA330458   4.894  12.321   1.954  0.2928  0.2457 -0.0145
19872OST    PA430459   4.652  12.105   2.161  0.0001 -0.0630 -0.2869
19872OST    PA530460   4.677  11.973   2.469  0.0373 -0.2468  0.2831
19872OST    PA630461   4.908  11.957   2.465 -0.2231 -0.1902 -0.0566
19873OST    PA130462   7.345   9.950   8.760  0.2411 -0.0509 -0.1143
19873OST    PA230463   7.513  10.082   9.061  0.2768 -0.1389 -0.3900
19873OST    PA330464   7.693  10.239   8.893 -0.4433 -0.2862  0.0752
19873OST    PA430465   7.503  10.222   9.200  0.1455  0.0876  0.1443
19873OST    PA530466   7.178  10.228   9.283  0.2910  0.1184 -0.1128
19873OST    PA630467   7.162  10.013   9.154 -0.1736  0.0243  0.0905
19874OST    PA130468   9.714  11.258   9.743  0.1444  0.2298 -0.1567
19874OST    PA230469   9.425  11.295   9.915  0.0772  0.3171  0.2209
19874OST    PA330470   9.279  11.156   9.701  0.1773 -0.4794 -0.0434
19874OST    PA430471   9.306  11.432   9.953  0.0810  0.0315 -0.0722
19874OST    PA530472   9.363  11.369  10.258  0.4208  0.1288 -0.1988
19874OST    PA630473   9.521  11.221  10.273 -0.1816  0.3212  0.1022
19875OST    PA130474   4.276   7.047  12.301  0.3824  0.0938 -0.2047
19875OST    PA230475   4.080   7.220  12.030 -0.2043  0.1363  0.2783
19875OST    PA330476   4.198   7.489  12.005  0.4666  0.2747 -0.4733
19875OST    PA430477   4.062   7.207  11.858 -0.1737  0.4274  0.2981
19875OST    PA530478   3.795   7.015  11.928  0.3406 -0.4374  0.1786
19875OST    PA630479   3.770   7.046  12.165 -0.3886 -0.0208 -0.1073
19876OST    PA130480   1.080  15.472   4.125 -0.1948  0.0550 -0.0827
19876OST    PA230481   1.139  15.264   3.889 -0.0635 -0.0980  0.2205
19876OST    PA330482   1.365  15.097   3.997  0.1227  0.4400  0.1891
19876OST    PA430483   1.208  15.285   3.716 -0.0377  0.0365  0.0693
19876OST    PA530484   0.970  15.303   3.529 -0.0946 -0.0298  0.0178
19876OST    PA630485   0.805  15.318   3.723 -0.2544  0.2789  0.1464
19877OST    PA130486  11.905   0.040   3.401  0.0479  0.2646 -0.1926
19877OST    PA230487  11.867   0.201   3.701  0.2340 -0.0717  0.0727
19877OST    PA330488  11.667   0.026   3.748 -0.1493  0.3468 -0.1968
19877OST    PA430489  11.885   0.283   3.876  0.0824 -0.2152 -0.1226
19877OST    PA530490  11.905   0.548   3.729 -0.0420  0.0895 -0.2639
19877OST    PA630491  11.924   0.476   3.493 -0.0497  0.1926  0.1328
19878OST    PA130492   8.384   9.792   8.955  0.1762 -0.1237  0.1740
19878OST    PA230493   8.057   9.739   8.790 -0.6538 -0.0084 -0.1232
19878OST    PA330494   7.838   9.709   8.991  0.0459 -0.2013  0.2560
19878OST    PA430495   7.941   9.827   8.665 -0.1629  0.0255 -0.0371
19878OST    PA530496   8.107   9.766   8.416  0.0020  0.1550  0.1510
19878OST    PA630497   8.283   9.699   8.520 -0.1186  0.1486 -0.2506
19879OST    PA130498   8.308  10.471   8.940  0.0156  0.2813 -0.2017
19879OST    PA230499   8.294  10.189   9.162 -0.2963  0.1500 -0.2595
19879OST    PA330500   8.548  10.151   9.345  0.1792 -0.6335  0.0808
19879OST    PA430501   8.163  10.184   9.333 -0.1135 -0.2892  0.1267
19879OST    PA530502   7.913  10.106   9.117 -0.2425  0.0237 -0.3375
19879OST    PA630503   8.030  10.120   8.922 -0.1952 -0.0053  0.1105
19880OST    PA130504  14.126  15.097   3.465 -0.0202 -0.1880 -0.1009
19880OST    PA230505  14.250  14.752   3.481  0.0156  0.2071  0.2790
19880OST    PA330506  14.279  14.795   3.757  0.3074 -0.3253  0.0510
19880OST    PA430507  14.437  14.634   3.464  0.2853 -0.1583  0.0435
19880OST    PA530508  14.448  14.675   3.142 -0.0420  0.1525  0.1967
19880OST    PA630509  14.244  14.754   3.157  0.1527 -0.1613 -0.2208
19881OST    PA130510  11.647   0.330   4.799 -0.1854 -0.0983 -0.0443
19881OST    PA230511  11.614   0.401   4.428 -0.0022 -0.1631 -0.0365
19881OST    PA330512  11.839   0.585   4.472  0.0616  0.0110 -0.0760
19881OST    PA430513  11.677   0.336   4.244  0.2442 -0.0854  0.0842
19881OST    PA530514  11.376   0.298   4.173 -0.2162 -0.1935  0.0061
19881OST    PA630515  11.293   0.395   4.392 -0.2405 -0.0460 -0.0610
19882OST    PA130516   1.948  15.793  12.007  0.2879  0.0380  0.0340
19882OST    PA230517   2.131  15.799  12.294 -0.1872 -0.0992 -0.3665
19882OST    PA330518   2.343  15.700  12.140 -0.0485  0.2141 -0.3237
19882OST    PA430519   2.225  15.787  12.470 -0.0636 -0.1572 -0.1174
19882OST    PA530520   2.090  16.059  12.613  0.2387 -0.2509 -0.3962
19882OST    PA630521   1.985  16.116  12.408 -0.5015  0.3358  0.0662
19883OST    PA130522  11.840  11.386  11.236  0.0695  0.0622 -0.2242
19883OST    PA230523  12.037  11.278  11.490  0.1660 -0.0444 -0.2116
19883OST    PA330524  12.269  11.130  11.382  0.0869  0.2704 -0.0379
19883OST    PA430525  12.156  11.376  11.642  0.1670 -0.2054 -0.1995
19883OST    PA530526  11.920  11.363  11.838  0.1770 -0.0268 -0.2499
19883OST    PA630527  11.755  11.342  11.713  0.4240  0.2971 -0.1345
19884OST    PA130528  15.796   0.636  12.358 -0.2704 -0.2235 -0.0728
19884OST    PA230529  16.003   0.823  12.599 -0.1784  0.1756  0.0707
19884OST    PA330530  16.070   0.539  12.695  0.0837 -0.2845 -0.3823
19884OST    PA430531  16.112   0.914  12.751 -0.0347 -0.0806 -0.2853
19884OST    PA530532  15.966   1.193  12.679 -0.2671  0.1994  0.1701
19884OST    PA630533  15.816   1.105  12.534  0.5832  0.0285 -0.1021
19885OST    PA130534  11.304  14.308   3.264  0.1367 -0.1498  0.3145
19885OST    PA230535  11.405  14.069   3.492 -0.1789 -0.0743 -0.5685
19885OST    PA330536  11.647  13.972   3.406 -0.5221 -0.2294 -0.1976
19885OST    PA430537  11.417  14.019   3.700  0.4458  0.3763  0.1257
19885OST    PA530538  11.089  13.953   3.675 -0.1497  0.0278 -0.3298
19885OST    PA630539  11.071  14.012   3.464  0.1085  0.1722 -0.3492
19886OST    PA130540   0.564  11.613   8.661 -0.0107  0.0406 -0.0137
19886OST    PA230541   0.597  11.761   8.994  0.0390 -0.0296  0.0470
19886OST    PA330542   0.352  11.589   9.057  0.2192 -0.1221  0.2479
19886OST    PA430543   0.554  11.917   9.115 -0.1632  0.0392  0.0593
19886OST    PA530544   0.710  12.161   8.991  0.1245  0.2686  0.1974
19886OST    PA630545   0.809  11.979   8.808  0.1446 -0.3033  0.0458
19887OST    PA130546  14.756   9.397   4.802 -0.0742 -0.0120  0.1151
19887OST    PA230547  14.732   9.668   4.597  0.0369 -0.0138  0.2415
19887OST    PA330548  14.468   9.660   4.734 -0.0225 -0.2932  0.3741
19887OST    PA430549  14.668   9.774   4.409  0.2326  0.0138 -0.4434
19887OST    PA530550  14.971   9.877   4.316 -0.1091 -0.1529 -0.1176
19887OST    PA630551  15.051   9.674   4.420 -0.0274  0.1391 -0.2599
19888OST    PA130552  13.086  14.325  12.613 -0.1566  0.3494 -0.3047
19888OST    PA230553  12.819  14.193  12.824  0.1109  0.1198 -0.0119
19888OST    PA330554  12.694  14.425  12.931 -0.2559  0.1855  0.1735
19888OST    PA430555  12.648  14.068  12.803  0.1534 -0.0005  0.1701
19888OST    PA530556  12.837  13.799  12.844  0.4302  0.1377  0.1642
19888OST    PA630557  13.064  13.911  12.836  0.3512 -0.0188  0.5380
19889OST    PA130558   2.093   7.050   2.676 -0.0243 -0.2663 -0.3877
19889OST    PA230559   2.362   7.176   2.467  0.1206  0.0067 -0.3157
19889OST    PA330560   2.367   6.913   2.343  0.3095  0.0469  0.3396
19889OST    PA430561   2.357   7.289   2.298 -0.1517 -0.0964 -0.0009
19889OST    PA530562   2.393   7.568   2.453 -0.2343 -0.4257  0.1897
19889OST    PA630563   2.386   7.442   2.691 -0.2595 -0.0694  0.1244
19890OST    PA130564   6.342   1.211  13.382 -0.3988 -0.1406 -0.3135
19890OST    PA230565   6.572   1.032  13.612  0.1748  0.2915  0.0841
19890OST    PA330566   6.543   1.204  13.857  0.1814 -0.0975 -0.0072
19890OST    PA430567   6.755   1.022  13.622 -0.1720 -0.0842 -0.0381
19890OST    PA530568   6.786   0.740  13.447  0.5231  0.3283  0.0362
19890OST    PA630569   6.522   0.741  13.390 -0.2124  0.1203 -0.0470
19891OST    PA130570   2.453   4.814   0.753 -0.3534  0.1625 -0.1077
19891OST    PA230571   2.562   5.066   0.518  0.0984 -0.1404 -0.2273
19891OST    PA330572   2.498   4.825   0.354 -0.2623  0.3449  0.4652
19891OST    PA430573   2.456   5.218   0.381  0.0552  0.0339  0.2708
19891OST    PA530574   2.643   5.447   0.509  0.2528 -0.2898 -0.0701
19891OST    PA630575   2.742   5.331   0.687 -0.1474  0.0135  0.0967
19892OST    PA130576  14.856  11.108  10.497  0.2375  0.0697 -0.0505
19892OST    PA230577  15.144  11.096  10.739  0.2667  0.1399 -0.0951
19892OST    PA330578  15.276  11.197  10.481  0.1511  0.3718  0.0808
19892OST    PA430579  15.239  11.215  10.860  0.2175 -0.3927 -0.4020
19892OST    PA530580  15.006  11.165  11.092 -0.0746  0.3145  0.0496
19892OST    PA630581  14.888  10.990  10.941  0.2613 -0.0006 -0.0023
19893OST    PA130582   8.540   0.114   1.205  0.1089 -0.0093  0.2842
19893OST    PA230583   8.799  -0.055   1.046  0.0949  0.0205  0.4436
19893OST    PA330584   9.025   0.131   1.085  0.5694  0.4276 -0.0050
19893OST    PA430585   8.896  -0.218   1.051  0.1317  0.0858 -0.0113
19893OST    PA530586   8.690  -0.382   0.871 -0.4434 -0.0449  0.4279
19893OST    PA630587   8.569  -0.206   0.839  0.1650 -0.1236 -0.0433
19894OST    PA130588  15.049  13.422   0.014  0.1983  0.1925  0.0884
19894OST    PA230589  15.094  13.079   0.068 -0.1724 -0.2296  0.3748
19894OST    PA330590  15.139  13.089   0.352 -0.0609  0.3522 -0.0314
19894OST    PA430591  15.056  12.860   0.055 -0.0961 -0.0816  0.2062
19894OST    PA530592  15.041  12.856  -0.228 -0.4322 -0.1372  0.0443
19894OST    PA630593  15.052  13.055  -0.327 -0.3133  0.0517 -0.1984
19895OST    PA130594   4.294  12.766   0.339 -0.1783  0.0929  0.2019
19895OST    PA230595   4.571  12.622   0.528 -0.1321  0.3035  0.0518
19895OST    PA330596   4.817  12.742   0.429 -0.2797 -0.2447  0.3246
19895OST    PA430597   4.629  12.439   0.513 -0.1277  0.0199  0.0433
19895OST    PA530598   4.387  12.356   0.703  0.3999 -0.2657  0.1918
19895OST    PA630599   4.299  12.565   0.762  0.2931  0.2480  0.1278
19896OST    PA130600   4.109  13.391   1.146  0.3299  0.1634 -0.0521
19896OST    PA230601   3.938  13.652   0.939 -0.2155  0.1194 -0.3122
19896OST    PA330602   4.182  13.702   0.779  0.0204  0.2421  0.1681
19896OST    PA430603   3.857  13.826   0.906  0.2077  0.3878 -0.0842
19896OST    PA530604   3.617  13.793   1.096  0.4251  0.2540 -0.1383
19896OST    PA630605   3.670  13.580   1.190 -0.0214 -0.0561  0.2413
19897OST    PA130606   5.321   0.997   9.757  0.0317  0.5825 -0.0467
19897OST    PA230607   5.108   0.723   9.796  0.1125 -0.1816  0.0414
19897OST    PA330608   5.232   0.529   9.967  0.0917  0.1115 -0.2948
19897OST    PA430609   5.038   0.604   9.670 -0.1918 -0.0694  0.2872
19897OST    PA530610   4.838   0.798   9.502  0.3071  0.3565  0.5477
19897OST    PA630611   4.894   0.964   9.637 -0.2088  0.0765  0.4481
19898OST    PA130612   0.165  15.350  11.844  0.1847 -0.1299 -0.0956
19898OST    PA230613   0.227  15.015  11.789  0.0551 -0.1279 -0.1403
19898OST    PA330614   0.203  15.095  11.513  0.1602  0.1343 -0.0642
19898OST    PA430615   0.367  14.866  11.764 -0.0771  0.0497 -0.0211
19898OST    PA530616   0.414  14.787  12.092  0.3369 -0.2290  0.0974
19898OST    PA630617   0.266  14.954  12.132 -0.3513 -0.0569  0.0003
19899OST    PA130618  12.954   2.409   8.719  0.2366 -0.0150 -0.1996
19899OST    PA230619  12.747   2.585   8.952 -0.1505 -0.0411 -0.3765
19899OST    PA330620  12.843   2.844   8.832 -0.0604  0.2873  0.0381
19899OST    PA430621  12.592   2.674   9.024 -0.2483 -0.2690  0.1913
19899OST    PA530622  12.622   2.514   9.316 -0.2473 -0.1641  0.0640
19899OST    PA630623  12.810   2.391   9.249  0.2934  0.2250  0.4264
19900OST    PA130624   5.536   9.611   0.946  0.0652 -0.0398 -0.0726
19900OST    PA230625   5.290   9.494   0.714 -0.0835  0.3387  0.1191
19900OST    PA330626   5.120   9.581   0.909  0.3428 -0.1336  0.3056
19900OST    PA430627   5.194   9.600   0.536  0.0044 -0.1340 -0.1060
19900OST    PA530628   5.447   9.478   0.358 -0.1471  0.3807  0.0069
19900OST    PA630629   5.614   9.410   0.519  0.0883 -0.1749  0.0833
19901OST    PA130630   1.065   3.343   3.796  0.2283 -0.2761  0.1069
19901OST    PA230631   0.879   3.419   3.481  0.0353  0.4036  0.3171
19901OST    PA330632   1.130   3.518   3.428  0.4221 -0.0843  0.2898
19901OST    PA430633   0.769   3.558   3.367 -0.0696  0.0200  0.4138
19901OST    PA530634   0.535   3.539   3.553  0.4406  0.0794  0.5495
19901OST    PA630635   0.597   3.382   3.703  0.1719  0.3198  0.1917
19902OST    PA130636  11.165  10.810   3.683 -0.3954  0.3259 -0.1096
19902OST    PA230637  11.296  10.750   4.026  0.0807  0.0425 -0.0411
19902OST    PA330638  10.998  10.762   4.099 -0.0188 -0.0442  0.0089
19902OST    PA430639  11.351  10.739   4.217  0.0349  0.2883 -0.2178
19902OST    PA530640  11.635  10.643   4.162 -0.4539 -0.0531 -0.2001
19902OST    PA630641  11.587  10.596   3.909 -0.0146 -0.2229  0.0632
19903OST    PA130642   3.864  12.636   3.465  0.2665  0.2849 -0.1566
19903OST    PA230643   3.560  12.796   3.608  0.1574  0.0069 -0.1090
19903OST    PA330644   3.618  13.026   3.401  0.4509 -0.1416  0.0804
19903OST    PA430645   3.370  12.847   3.627 -0.0909  0.2189  0.1897
19903OST    PA530646   3.312  12.664   3.852  0.0574  0.4951 -0.2429
19903OST    PA630647   3.542  12.566   3.902 -0.3403  0.0840  0.1486
19904OST    PA130648  14.770   6.556  11.413 -0.1389 -0.2289 -0.0648
19904OST    PA230649  14.794   6.248  11.604  0.0748 -0.0708  0.1973
19904OST    PA330650  14.985   6.343  11.824  0.2617  0.1141  0.1826
19904OST    PA430651  14.768   6.068  11.678 -0.5178 -0.2251  0.0940
19904OST    PA530652  14.719   5.906  11.389  0.1859  0.0829  0.1012
19904OST    PA630653  14.748   6.113  11.289  0.2983 -0.1123  0.2778
19905OST    PA130654   5.727  14.829  13.343  0.5447  0.0989 -0.1066
19905OST    PA230655   6.078  14.783  13.387 -0.0197 -0.0572 -0.2748
19905OST    PA330656   6.197  15.011  13.560  0.5570  0.4171 -0.5573
19905OST    PA430657   6.209  14.634  13.471 -0.2692 -0.0658 -0.3288
19905OST    PA530658   6.274  14.519  13.183 -0.1288  0.0507 -0.3176
19905OST    PA630659   6.129  14.649  13.067 -0.1431  0.1528  0.2575
19906OST    PA130660   5.833   5.196  10.792 -0.1675 -0.2103  0.0245
19906OST    PA230661   6.173   5.318  10.693 -0.5056 -0.2373 -0.3063
19906OST    PA330662   6.301   5.561  10.811  0.4628 -0.0078 -0.3617
19906OST    PA430663   6.227   5.368  10.510 -0.5065 -0.1951  0.0908
19906OST    PA530664   6.225   5.063  10.406 -0.2269  0.1186  0.0775
19906OST    PA630665   6.135   4.977  10.592  0.0293  0.4663 -0.0861
19907OST    PA130666  15.036   2.986  12.611  0.4332 -0.1210  0.3364
19907OST    PA230667  15.179   2.783  12.878 -0.1154 -0.1390  0.2336
19907OST    PA330668  14.969   2.641  12.782 -0.1029 -0.0681  0.2310
19907OST    PA430669  15.267   2.633  12.989  0.1100  0.0611 -0.0843
19907OST    PA530670  15.517   2.801  13.054 -0.1964  0.2168  0.0634
19907OST    PA630671  15.483   2.989  12.934  0.4068  0.2476 -0.1524
19908OST    PA130672   2.002  13.359  11.365  0.2397  0.0308  0.2151
19908OST    PA230673   2.075  13.320  11.732  0.2680 -0.6103  0.3103
19908OST    PA330674   1.915  13.075  11.742 -0.5319  0.0740 -0.1285
19908OST    PA430675   2.064  13.367  11.907 -0.5312 -0.0914  0.0010
19908OST    PA530676   2.264  13.626  11.891  0.3051 -0.3137  0.0735
19908OST    PA630677   2.299  13.595  11.642  0.2776 -0.2353  0.3594
19909OST    PA130678   3.362  15.009   9.022  0.0251 -0.0285  0.0555
19909OST    PA230679   3.639  15.227   9.058 -0.2589  0.5044 -0.1996
19909OST    PA330680   3.826  15.011   8.958 -0.0085  0.2093 -0.2243
19909OST    PA430681   3.766  15.340   9.060 -0.0607 -0.2909 -0.1296
19909OST    PA530682   3.628  15.513   9.300  0.0915 -0.1452 -0.1878
19909OST    PA630683   3.416  15.377   9.291 -0.4464  0.0563 -0.1951
19910OST    PA130684   8.411  10.510   1.763 -0.0198  0.1220 -0.0300
19910OST    PA230685   8.181  10.250   1.860 -0.3045  0.2246  0.3925
19910OST    PA330686   8.115  10.153   1.604 -0.3393  0.0233 -0.3280
19910OST    PA430687   8.186  10.085   1.947  0.2326  0.2276 -0.0135
19910OST    PA530688   8.207  10.234   2.230  0.1368 -0.4379  0.2663
19910OST    PA630689   8.213  10.472   2.139 -0.2185 -0.2097  0.1686
19911OST    PA130690   2.825  15.446   0.288 -0.0608  0.0802  0.3416
19911OST    PA230691   2.616  15.503   0.022  0.4816 -0.5695  0.1562
19911OST    PA330692   2.482  15.724   0.188  0.3086 -0.0348  0.0787
19911OST    PA430693   2.437  15.405  -0.031  0.5549 -0.1118 -0.1071
19911OST    PA530694   2.580  15.172  -0.162 -0.1263 -0.1943  0.2557
19911OST    PA630695   2.809  15.238  -0.138  0.2389  0.0163  0.0022
19912OST    PA130696  14.220   4.304   0.998 -0.0237  0.1950  0.1428
19912OST    PA230697  14.439   4.059   0.873 -0.0069  0.1941 -0.1748
19912OST    PA330698  14.563   4.342   0.796 -0.3173  0.1138  0.0544
19912OST    PA430699  14.508   3.964   0.722 -0.4237  0.1666 -0.1269
19912OST    PA530700  14.214   3.912   0.569  0.1526  0.0947  0.2137
19912OST    PA630701  14.109   3.907   0.771  0.0067 -0.1720 -0.0345
19913OST    PA130702  15.568   2.711  11.736  0.2011  0.0863 -0.1783
19913OST    PA230703  15.778   2.951  11.573  0.0777  0.0551 -0.1822
19913OST    PA330704  15.534   3.022  11.417 -0.2154  0.0819  0.3839
19913OST    PA430705  15.886   3.097  11.489 -0.1174  0.2404  0.0081
19913OST    PA530706  16.132   3.115  11.693  0.0487  0.2377  0.5279
19913OST    PA630707  16.029   2.911  11.832  0.0884 -0.0983  0.0553
19914OST    PA130708   0.134   9.777   5.331 -0.1036 -0.0072 -0.2314
19914OST    PA230709   0.110   9.892   5.019 -0.0459 -0.0313  0.2295
19914OST    PA330710   0.082  10.171   5.048 -0.8371 -0.3149  0.1086
19914OST    PA430711   0.164   9.888   4.827 -0.2876 -0.0401 -0.0717
19914OST    PA530712   0.088   9.598   4.714  0.1355  0.0577  0.3028
19914OST    PA630713  -0.019   9.560   4.920  0.4115  0.0366  0.6285
19915OST    PA130714   5.095   6.085  10.045  0.0685  0.1483  0.0496
19915OST    PA230715   4.992   6.210  10.348 -0.1463  0.0248 -0.3383
19915OST    PA330716   4.694   6.223  10.255 -0.1030  0.0331 -0.0011
19915OST    PA430717   4.977   6.357  10.464  0.1249  0.0160 -0.3353
19915OST    PA530718   5.279   6.420  10.522 -0.6605 -0.1071  0.5997
19915OST    PA630719   5.325   6.207  10.439 -0.3381 -0.0002 -0.2730
19916OST    PA130720   2.775  14.871  12.187 -0.0584  0.1870 -0.0345
19916OST    PA230721   3.013  14.909  12.452  0.0073  0.0971 -0.0431
19916OST    PA330722   2.948  14.666  12.563 -0.4241  0.1972  0.0408
19916OST    PA430723   3.222  14.910  12.508  0.2091 -0.0954 -0.2481
19916OST    PA530724   3.206  15.218  12.533  0.2776 -0.2117  0.1647
19916OST    PA630725   2.968  15.260  12.478 -0.1766 -0.1331 -0.1035
19917OST    PA130726   1.327  13.099  10.946  0.1604  0.3002 -0.0047
19917OST    PA230727   1.650  13.119  10.834 -0.3764 -0.1919 -0.1882
19917OST    PA330728   1.666  13.334  10.628 -0.0945 -0.2883 -0.3664
19917OST    PA430729   1.801  13.195  10.947  0.2631 -0.0913 -0.0265
19917OST    PA530730   1.892  12.934  11.069  0.0048  0.1231 -0.2897
19917OST    PA630731   1.727  12.813  10.973  0.1767  0.0736  0.2019
19918OST    PA130732   8.096  10.011   2.901 -0.4266  0.0725 -0.1346
19918OST    PA230733   8.269   9.725   2.813 -0.3144 -0.0460  0.3069
19918OST    PA330734   8.071   9.626   2.640 -0.0795 -0.4735  0.7211
19918OST    PA430735   8.362   9.552   2.851  0.0870  0.1141  0.0868
19918OST    PA530736   8.657   9.690   2.826 -0.0609  0.6650  0.1908
19918OST    PA630737   8.575   9.896   2.794 -0.0341  0.3925 -0.3820
19919OST    PA130738  10.097   6.399   1.397 -0.1122 -0.3028  0.0235
19919OST    PA230739  10.375   6.207   1.244 -0.3181 -0.2689  0.1136
19919OST    PA330740  10.523   6.326   1.486  0.2563 -0.0774  0.0636
19919OST    PA430741  10.481   6.041   1.255 -0.0367 -0.0575  0.0004
19919OST    PA530742  10.425   5.998   0.933  0.1195  0.4280  0.2965
19919OST    PA630743  10.255   6.142   0.920 -0.0347  0.0536 -0.3590
19920OST    PA130744   4.435   4.233   1.044 -0.0614 -0.2088 -0.6012
19920OST    PA230745   4.548   4.509   0.854  0.0864 -0.4145 -0.0751
19920OST    PA330746   4.416   4.768   0.861  0.0116  0.2045 -0.0949
19920OST    PA430747   4.562   4.517   0.636  0.1413 -0.1571  0.0385
19920OST    PA530748   4.846   4.415   0.601 -0.0518  0.1385 -0.4316
19920OST    PA630749   4.855   4.400   0.840  0.2105  0.3333  0.1351
19921OST    PA130750   7.172   8.863   3.082 -0.0755  0.1673  0.1893
19921OST    PA230751   7.457   8.723   3.208 -0.1755  0.2292  0.0314
19921OST    PA330752   7.563   8.703   2.928  0.0310 -0.1549  0.1161
19921OST    PA430753   7.657   8.686   3.305  0.0501  0.1609  0.1221
19921OST    PA530754   7.580   8.789   3.581  0.1545  0.0983 -0.4133
19921OST    PA630755   7.375   8.837   3.528  0.4678 -0.3793  0.2464
19922OST    PA130756  10.878   8.336   2.360 -0.2562  0.2258  0.0568
19922OST    PA230757  10.581   8.397   2.557  0.2705 -0.0917 -0.2110
19922OST    PA330758  10.486   8.679   2.489 -0.1537 -0.0368  0.1357
19922OST    PA430759  10.426   8.335   2.642  0.2453  0.0162  0.1462
19922OST    PA530760  10.514   8.095   2.808  0.3440 -0.1057  0.0012
19922OST    PA630761  10.741   8.130   2.750  0.2083 -0.3495  0.0689
19923OST    PA130762   0.466   5.831   2.298  0.1087 -0.1232  0.1540
19923OST    PA230763   0.696   5.546   2.388  0.7730 -0.2919 -0.0336
19923OST    PA330764   0.768   5.478   2.113  0.4531  0.0675 -0.1282
19923OST    PA430765   0.847   5.435   2.483 -0.0080  0.1123  0.1432
19923OST    PA530766   0.710   5.396   2.752  0.1144  0.5143 -0.0022
19923OST    PA630767   0.519   5.544   2.746  0.1207 -0.1074 -0.2340
19924OST    PA130768   8.851  10.968   4.159 -0.1424 -0.0356  0.3087
19924OST    PA230769   8.942  10.676   4.344  0.3906  0.1647 -0.0614
19924OST    PA330770   9.093  10.715   4.558 -0.2628 -0.3543 -0.1573
19924OST    PA430771   8.846  10.503   4.416  0.3245  0.0475  0.0611
19924OST    PA530772   8.910  10.326   4.160 -0.1818 -0.0753 -0.0632
19924OST    PA630773   8.995  10.513   4.028  0.2376 -0.0517 -0.0536
19925OST    PA130774   4.902  12.099   1.425 -0.0548  0.1085  0.0654
19925OST    PA230775   4.579  11.961   1.346 -0.1414 -0.1709 -0.0650
19925OST    PA330776   4.698  11.880   1.089  0.4320 -0.4020 -0.0593
19925OST    PA430777   4.441  11.838   1.341 -0.0349  0.1314  0.0133
19925OST    PA530778   4.308  11.995   1.589  0.4615 -0.0721  0.3627
19925OST    PA630779   4.452  12.096   1.620  0.0019 -0.0288 -0.2623
19926OST    PA130780   3.256   4.260   2.583  0.1399  0.4463  0.0892
19926OST    PA230781   3.186   3.987   2.808 -0.0472 -0.2988 -0.1443
19926OST    PA330782   2.897   3.963   2.717  0.3442  0.4209 -0.5072
19926OST    PA430783   3.149   3.966   2.979  0.0700  0.1882  0.1101
19926OST    PA530784   3.485   3.942   2.995  0.0424  0.1675 -0.0336
19926OST    PA630785   3.550   3.992   2.791 -0.0128 -0.0494 -0.1533
19927OST    PA130786  10.542   5.541   4.927 -0.1527  0.0729  0.1206
19927OST    PA230787  10.755   5.451   4.638  0.0718  0.2522 -0.3026
19927OST    PA330788  10.552   5.199   4.645 -0.0060 -0.2136  0.0472
19927OST    PA430789  10.866   5.385   4.525 -0.0106 -0.3890 -0.0724
19927OST    PA530790  10.986   5.674   4.482  0.2055 -0.6621  0.0954
19927OST    PA630791  10.845   5.788   4.641 -0.0502 -0.1950  0.0876
19928OST    PA130792  15.119   7.122  11.863 -0.2587 -0.0120  0.0167
19928OST    PA230793  15.278   7.190  11.544  0.3589  0.0634 -0.2750
19928OST    PA330794  15.526   7.032  11.555 -0.4354 -0.3628  0.0592
19928OST    PA430795  15.191   7.126  11.383  0.1701 -0.0525  0.0461
19928OST    PA530796  14.942   7.329  11.375  0.1314 -0.0378 -0.1473
19928OST    PA630797  15.040   7.449  11.560  0.0274  0.2992 -0.1697
19929OST    PA130798  15.605  10.791   4.835 -0.0206  0.1306 -0.0567
19929OST    PA230799  15.447  10.613   4.562  0.1277  0.1233  0.3030
19929OST    PA330800  15.375  10.405   4.819 -0.0597 -0.1637 -0.0118
19929OST    PA430801  15.277  10.596   4.467 -0.1379  0.0849 -0.3204
19929OST    PA530802  15.320  10.785   4.204 -0.1785  0.2580 -0.2703
19929OST    PA630803  15.541  10.859   4.300  0.1151 -0.4939  0.2042
19930OST    PA130804   8.440   7.705  11.882  0.1906  0.0431 -0.2283
19930OST    PA230805   8.123   7.804  11.799  0.0873 -0.0490 -0.3027
19930OST    PA330806   8.246   8.051  11.720 -0.6068 -0.1978 -0.0376
19930OST    PA430807   7.954   7.837  11.715  0.1746  0.3285 -0.0489
19930OST    PA530808   7.874   7.550  11.622 -0.0998  0.2569  0.0435
19930OST    PA630809   8.068   7.461  11.698 -0.0159  0.1062  0.2464
19931OST    PA130810   7.248  10.238  12.598 -0.0107 -0.0968  0.0168
19931OST    PA230811   6.918  10.138  12.728 -0.2346 -0.1765  0.0185
19931OST    PA330812   6.712  10.299  12.577 -0.4105  0.2714 -0.0515
19931OST    PA430813   6.791  10.032  12.852 -0.1396 -0.0533 -0.0357
19931OST    PA530814   7.005   9.994  13.120 -0.1625 -0.0655 -0.1582
19931OST    PA630815   7.118  10.164  13.024 -0.1944  0.2975  0.2919
19932OST    PA130816  11.892   0.177  10.743 -0.0925 -0.2249  0.0423
19932OST    PA230817  12.153   0.107  10.544  0.1953 -0.0829  0.0278
19932OST    PA330818  12.128  -0.178  10.632 -0.0850  0.4024  0.0736
19932OST    PA430819  12.314   0.093  10.435 -0.0584  0.3828 -0.1719
19932OST    PA530820  12.436   0.402  10.473  0.1484 -0.6074 -0.2691
19932OST    PA630821  12.213   0.462  10.535 -0.1455 -0.2399  0.0615
19933OST    PA130822  14.402   0.179   3.681 -0.1153 -0.0056  0.3117
19933OST    PA230823  14.689   0.272   3.845 -0.0340 -0.0433  0.1080
19933OST    PA330824  14.508   0.524   3.823  0.4058 -0.0365 -0.5640
19933OST    PA430825  14.764   0.320   4.014  0.0885  0.1196  0.2142
19933OST    PA530826  14.918   0.017   4.030 -0.2627 -0.2228  0.2360
19933OST    PA630827  14.875  -0.059   3.833  0.1538  0.2010 -0.1070
19934OST    PA130828  14.512   2.111   9.146 -0.1839 -0.2422  0.0739
19934OST    PA230829  14.393   2.425   9.224 -0.1761 -0.4083 -0.0932
19934OST    PA330830  14.585   2.545   9.031 -0.3561  0.3087 -0.3153
19934OST    PA430831  14.398   2.585   9.337 -0.1245  0.0420 -0.4725
19934OST    PA530832  14.261   2.419   9.578  0.2857  0.1987  0.2081
19934OST    PA630833  14.165   2.266   9.419 -0.1892 -0.0540 -0.0293
19935OST    PA130834  11.138  14.668   9.450 -0.1010  0.0644  0.2345
19935OST    PA230835  11.357  14.488   9.249  0.1640  0.1216 -0.0442
19935OST    PA330836  11.379  14.224   9.376 -0.3343 -0.0992 -0.2673
19935OST    PA430837  11.425  14.433   9.080  0.0901 -0.3315  0.0666
19935OST    PA530838  11.609  14.698   9.054  0.1557 -0.0489 -0.3017
19935OST    PA630839  11.520  14.792   9.249 -0.1700  0.2829 -0.0387
  15.89547  15.89547  13.45437
