[ moleculetype ]
; molname        nrexcl
EUG               1


[ atoms ] 
; id type   resnr   residue  atom   cgnr    charge

 1     SC4     1      EUG     PA1    1      0.00000
 2     TC5     1      EUG     PA2    2      0.00000
 3     TC5     1      EUG     PA3    3      0.00000
 4    TN1a     1      EUG     PA4    4      0.00000
 5     SN3     1      EUG     PA5    5      0.00000



[ bonds ]
;   i     j   funct   length   force.c.

; bond group 1
    1     2       1        0         0           ; 

; bond group 2
    3     4       1        0         0           ; 


[ constraints ]
;   i     j   funct   length   

; constraint group 1
    2     3       1        0         ; 

; constraint group 2
    3     5       1        0         ; 

; constraint group 3
    2     5       1        0         ; 



[ angles ]
;   i     j     k    funct     angle   force.c.

; angle group 1
    1     2     3      2       0         0           ; 

; angle group 2
    1     2     5      2       0         0           ; 

; angle group 3
    4     3     2      2       0         0           ; 

; angle group 4
    4     3     5      2       0         0           ; 
 
 [ dihedrals ]
;   i     j     k    l   funct     angle   force.c.

; dihedral group 1
    4   3   2   1     1       15         10      1     ; 

; dihedral group 2
    2   3   4   5     1       15         10      1     ; 
