[ moleculetype ]
; molname        nrexcl
EMO               1


[ atoms ]
; id type   resnr  residue  atom  cgnr    charge

1     SP1     1      EMO     PA1   1      0.00000
2     SP1     1      EMO     PA2   2      0.00000
3     N3a     1      EMO     PA3   3      0.00000
4     N3a     1      EMO     PA4   4      0.00000
5     SP1     1      EMO     PA5   5      0.00000
6     SC5     1      EMO     PA6   6      0.00000


[ bonds ]
;   i     j   funct      length       force

; bond group 1
    3     4       1        0           0  ; 

; bond group 2
    1     2       1        0           0  ; 

; bond group 3
    6     5       1        0           0  ; 

; bond group 4
    1     4       1        0            0; 

; bond group 5
    2     3       1        0           0  ; 

; bond group 6
    3     5       1        0           0  ; 

; bond group 7
    6     4       1        0            0        ; 



[ dihedrals ]
;   i     j     k    l   funct     angle   force.c.

; dihedral group 1
    1     2     3    4     2        0         0           ; 
	
; dihedral group 2
    3     4     6    5     2        0         0           ; 

; dihedral group 3
    1     2     5    6     2        0         0           ; 
	
; dihedral group 4
    2     1     6    5     2        0         0           ; 
