[ moleculetype ]
; molname        nrexcl
QUE               1


[ atoms ] 
; id type   QUEnr   QUEidue  atom   cgnr    charge

 1     SN3     1      QUE     PA1    1      0.00000
 2     SN3     1      QUE     PA2    2      0.00000
 3     TC5     1      QUE     PA3    3      0.00000
 4    SN2a     1      QUE     PA1    4      0.00000
 5     N3a     1      QUE     PA2    5      0.00000
 6     TP1     1      QUE     PA3    6      0.00000
 7     SN3     1      QUE     PA1    7      0.00000
 8     SN3     1      QUE     PA1    8      0.00000


[ bonds ]
;   i     j   funct   length   force.c.

; bond group 1
    3     4       1        0         0           ; 

; bond group 2
    5     6       1        0         0           ; 

; bond group 3
    4     5       1        0         0         ; 

; bond group 4
    4     8       1        0          0        ; 

; bond group 5
    5     7       1        0          0        ; 

; bond group 6
    7     8       1        0          0        ; 

; bond group 7
    1     2       1        0          0        ; 

; bond group 8
    1     3       1        0          0        ; 

; bond group 9
    2     3       1        0           0       ; 
	
	
[ angles ]
;   i     j     k    funct     angle   force.c.

; angle group 1
    3     4     5      2       0         0           ; 

; angle group 2
    3     4     8      2       0         0           ; 

; angle group 3
    4     5     6      2       0         0           ; 

; angle group 4
    7     5     6      2       0         0           ; 
	
	
	
[ dihedrals ]
;   i     j     k     l    funct    angle   force.c.

; dihedral group 1
    4     5     7     8      2        0         0           ; 
