frame t= 0.000
  948
    1QUE    PA1    1   3.077   4.618   0.715
    1QUE    PA2    2   3.126   4.405   0.608
    1QUE    PA3    3   2.912   4.550   0.490
    1QUE    PA4    4   2.775   4.819   0.468
    1QUE    PA5    5   2.559   4.750   0.383
    1QUE    PA6    6   2.620   4.525   0.443
    1QUE    PA7    7   2.466   5.044   0.368
    1QUE    PA8    8   2.722   5.182   0.478
    2WN      WN    9   0.084   3.595   3.359
    3WN      WN   10   0.460   2.488   2.882
    4WN      WN   11   3.165   2.218   0.652
    5WN      WN   12   3.295   3.303   2.679
    6WN      WN   13   1.213   3.294   0.205
    7WN      WN   14   1.296   1.446   1.188
    8WN      WN   15   0.811   1.294   1.352
    9WN      WN   16   1.802   2.109   0.786
   10WN      WN   17   1.477   3.201   3.141
   11WN      WN   18   0.126   0.762   3.104
   12WN      WN   19   0.888   0.042   2.906
   13WN      WN   20   2.582   0.430   1.793
   14WN      WN   21   2.231   1.301   0.363
   15WN      WN   22   2.801   0.735   3.454
   16WN      WN   23   0.167   0.527   2.579
   17WN      WN   24   0.266   3.146   3.600
   18WN      WN   25   1.788   2.536   0.332
   19WN      WN   26   0.220   1.319   2.025
   20WN      WN   27   1.113   1.210   3.262
   21WN      WN   28   3.572   1.069   1.761
   22WN      WN   29   3.336   2.112   2.620
   23WN      WN   30   1.644   1.445   1.647
   24WN      WN   31   2.190   2.784   2.016
   25WN      WN   32   0.690   2.218   2.248
   26WN      WN   33   0.049   1.746   1.819
   27WN      WN   34   1.085   1.718   3.011
   28WN      WN   35   3.356   1.501   3.265
   29WN      WN   36   0.972   2.945   1.710
   30WN      WN   37   2.093   2.634   2.844
   31WN      WN   38   1.313   1.274   2.069
   32WN      WN   39   1.605   2.058   1.712
   33WN      WN   40   2.602   2.831   3.560
   34WN      WN   41   1.681   2.151   3.570
   35WN      WN   42   1.662   1.867   3.048
   36WN      WN   43   0.071   1.258   3.570
   37WN      WN   44   2.903   2.793   3.169
   38WN      WN   45   0.484   0.375   1.167
   39WN      WN   46   1.011   2.633   2.166
   40WN      WN   47   3.474   2.416   1.456
   41WN      WN   48   2.887   0.816   2.023
   42WN      WN   49   3.172   0.769   0.118
   43WN      WN   50   3.637   1.570   2.424
   44WN      WN   51   1.604   3.277   2.177
   45WN      WN   52   3.378   2.743   0.615
   46WN      WN   53   0.507   3.529   0.369
   47WN      WN   54   0.900   3.575   1.045
   48WN      WN   55   0.697   0.329   2.471
   49WN      WN   56   3.320   1.347   2.746
   50WN      WN   57   2.725   1.769   1.205
   51WN      WN   58   2.691   1.457   0.232
   52WN      WN   59   1.899   2.601   2.372
   53WN      WN   60   1.705   0.931   1.571
   54WN      WN   61   2.305   3.018   2.565
   55WN      WN   62   3.176   1.809   0.987
   56WN      WN   63   2.078   0.467   1.003
   57WN      WN   64   0.735   3.161   0.686
   58WN      WN   65   0.106   0.660   1.285
   59WN      WN   66   2.892   1.267   1.759
   60WN      WN   67   0.350   2.884   1.674
   61WN      WN   68   1.691   3.234   0.544
   62WN      WN   69   3.083   1.260   0.008
   63WN      WN   70   0.106   3.018   2.172
   64WN      WN   71   0.897   2.590   2.652
   65WN      WN   72   1.270   1.950   1.271
   66WN      WN   73   1.292   0.355   2.364
   67WN      WN   74   3.521   0.117   1.661
   68WN      WN   75   0.740   1.989   0.129
   69WN      WN   76   0.395   1.022   0.308
   70WN      WN   77   0.457   2.978   1.102
   71WN      WN   78   1.588   2.461   1.350
   72WN      WN   79   2.920   3.320   3.064
   73WN      WN   80   1.846   0.962   0.748
   74WN      WN   81   3.229   3.360   1.520
   75WN      WN   82   2.906   1.213   3.118
   76WN      WN   83   3.619   2.869   1.252
   77WN      WN   84   2.246   2.161   2.736
   78WN      WN   85   0.012   1.712   0.942
   79WN      WN   86   1.123   2.127   2.515
   80WN      WN   87   2.327   1.391   0.893
   81WN      WN   88   2.204   1.881   0.997
   82WN      WN   89   0.547   1.301   2.471
   83WN      WN   90   0.532   1.177   3.393
   84WN      WN   91   0.422   0.094   1.552
   85WN      WN   92   2.190   0.441   2.113
   86WN      WN   93   1.838   0.626   3.276
   87WN      WN   94   2.193   0.775   0.454
   88WN      WN   95   3.376   3.168   3.208
   89WN      WN   96   2.343   0.249   3.247
   90WN      WN   97   3.362   2.550   3.369
   91WN      WN   98   2.792   0.717   2.965
   92WN      WN   99   2.592   0.655   1.235
   93WN      WN  100   2.985   1.789   3.639
   94WN      WN  101   0.725   3.365   1.625
   95WN      WN  102   1.383   1.082   0.611
   96WN      WN  103   0.952   0.366   3.275
   97WN      WN  104   3.004   0.850   0.956
   98WN      WN  105   3.371   1.332   0.901
   99WN      WN  106   1.114   3.549   3.372
  100WN      WN  107   1.040   0.085   0.607
  101WN      WN  108   3.361   0.619   1.642
  102WN      WN  109   3.511   2.868   0.087
  103WN      WN  110   0.418   2.071   1.789
  104WN      WN  111   2.335   0.658   0.019
  105WN      WN  112   3.469   2.990   1.739
  106WN      WN  113   3.508   0.184   2.489
  107WN      WN  114   1.953   1.396   3.043
  108WN      WN  115   2.046   2.735   0.746
  109WN      WN  116   2.446   2.029   3.486
  110WN      WN  117   2.120   0.006   1.795
  111WN      WN  118   0.732   0.909   1.858
  112WN      WN  119   0.286   2.109   2.632
  113WN      WN  120   2.145   3.302   1.338
  114WN      WN  121   3.339   0.899   2.210
  115WN      WN  122   1.976   3.246   2.977
  116WN      WN  123   3.319   2.305   0.182
  117WN      WN  124   1.754   1.788   1.243
  118WN      WN  125   3.606   0.299   2.984
  119WN      WN  126   1.755   2.134   2.578
  120WN      WN  127   1.972   1.020   2.023
  121WN      WN  128   2.824   1.318   0.861
  122WN      WN  129   3.111   1.051   0.503
  123WN      WN  130   2.920   3.091   0.892
  124WN      WN  131   2.754   2.694   1.688
  125WN      WN  132   2.650   1.773   0.666
  126WN      WN  133   2.083   1.983   1.652
  127WN      WN  134   2.964   1.771   1.719
  128WN      WN  135   0.339   0.786   2.143
  129WN      WN  136   3.117   1.838   2.970
  130WN      WN  137   3.468   3.456   2.116
  131WN      WN  138   1.398   2.900   1.518
  132WN      WN  139   2.405   3.433   2.842
  133WN      WN  140   2.399   0.763   2.606
  134WN      WN  141   1.606   3.471   2.667
  135WN      WN  142   3.303   0.425   1.133
  136WN      WN  143   3.094   1.744   2.434
  137WN      WN  144   0.077   1.065   2.472
  138WN      WN  145   2.937   0.860   1.490
  139WN      WN  146   3.348   1.011   3.267
  140WN      WN  147   2.233   2.710   1.485
  141WN      WN  148   1.489   3.301   1.098
  142WN      WN  149   0.604   0.481   0.356
  143WN      WN  150   1.708   0.135   2.166
  144WN      WN  151   0.736   3.255   0.014
  145WN      WN  152   1.110   1.721   0.765
  146WN      WN  153   1.764   2.350   3.078
  147WN      WN  154   1.594   0.708   1.068
  148WN      WN  155   2.950   0.305   1.496
  149WN      WN  156   2.670   3.587   1.824
  150WN      WN  157   2.082   3.235   2.164
  151WN      WN  158   1.478   2.272   2.125
  152WN      WN  159   3.248   2.995   2.251
  153WN      WN  160   0.942   0.498   1.020
  154WN      WN  161   1.464   2.795   1.980
  155WN      WN  162   0.947   0.726   0.045
  156WN      WN  163   1.748   1.335   2.439
  157WN      WN  164   2.596   0.201   2.309
  158WN      WN  165   0.016   2.044   2.194
  159WN      WN  166   1.720   1.862   0.352
  160WN      WN  167   0.988   0.177   0.122
  161WN      WN  168   1.726   1.258   1.173
  162WN      WN  169   2.696   0.234   2.872
  163WN      WN  170   1.284   2.246   2.981
  164WN      WN  171   2.088   2.028   3.198
  165WN      WN  172   2.705   2.058   3.091
  166WN      WN  173   1.989   0.198   3.596
  167WN      WN  174   1.211   0.814   1.989
  168WN      WN  175   0.637   0.770   1.387
  169WN      WN  176   0.423   3.482   1.063
  170WN      WN  177   1.755   2.812   3.188
  171WN      WN  178   0.790   2.297   0.547
  172WN      WN  179   2.470   1.682   1.768
  173WN      WN  180   2.750   1.481   2.167
  174WN      WN  181   1.955   2.155   2.101
  175WN      WN  182   2.425   2.529   0.233
  176WN      WN  183   2.097   0.550   1.561
  177WN      WN  184   3.576   0.828   0.829
  178WN      WN  185   0.070   3.417   2.860
  179WN      WN  186   0.487   2.643   2.392
  180WN      WN  187   0.054   3.489   0.624
  181WN      WN  188   1.953   0.759   2.430
  182WN      WN  189   1.316   2.782   0.279
  183WN      WN  190   3.221   3.164   0.465
  184WN      WN  191   2.196   1.817   0.479
  185WN      WN  192   1.039   1.008   0.996
  186WN      WN  193   1.871   0.918   0.048
  187WN      WN  194   2.455   2.483   3.226
  188WN      WN  195   2.808   0.389   0.843
  189WN      WN  196   0.138   0.237   0.291
  190WN      WN  197   1.424   2.556   2.581
  191WN      WN  198   1.223   2.472   1.673
  192WN      WN  199   0.965   2.424   0.071
  193WN      WN  200   0.206   2.665   0.839
  194WN      WN  201   0.710   1.735   3.281
  195WN      WN  202   1.414   0.295   3.467
  196WN      WN  203   2.123   0.437   2.823
  197WN      WN  204   1.318   0.205   1.104
  198WN      WN  205   2.377   0.282   0.609
  199WN      WN  206   0.322   0.214   2.186
  200WN      WN  207   0.370   1.177   1.556
  201WN      WN  208   3.059   0.285   1.962
  202WN      WN  209   0.481   0.783   0.776
  203WN      WN  210   3.052   0.471   2.392
  204WN      WN  211   3.448   1.674   0.077
  205WN      WN  212   0.740   0.432   1.896
  206WN      WN  213   1.854   1.004   2.836
  207WN      WN  214   0.002   0.694   0.314
  208WN      WN  215   0.788   2.083   2.875
  209WN      WN  216   2.146   1.481   2.054
  210WN      WN  217   2.013   3.560   0.350
  211WN      WN  218   0.159   2.067   0.047
  212WN      WN  219   0.894   2.478   3.173
  213WN      WN  220   0.415   1.645   2.804
  214WN      WN  221   1.406   1.750   2.598
  215WN      WN  222   3.174   0.109   2.860
  216WN      WN  223   3.572   1.719   2.851
  217WN      WN  224   3.560   1.919   0.537
  218WN      WN  225   2.423   2.251   0.636
  219WN      WN  226   2.897   3.551   0.331
  220WN      WN  227   2.074   1.541   3.473
  221WN      WN  228   0.404   2.508   3.513
  222WN      WN  229   3.610   0.430   3.465
  223WN      WN  230   3.328   1.358   2.086
  224WN      WN  231   1.636   3.488   3.563
  225WN      WN  232   1.491   0.117   0.290
  226WN      WN  233   3.030   2.716   0.233
  227WN      WN  234   0.799   0.809   3.119
  228WN      WN  235   1.233   2.803   2.981
  229WN      WN  236   3.359   0.794   2.779
  230WN      WN  237   2.570   3.453   0.747
  231WN      WN  238   2.809   2.072   2.114
  232WN      WN  239   1.059   0.488   2.781
  233WN      WN  240   1.528   1.557   3.538
  234WN      WN  241   1.031   2.736   0.732
  235WN      WN  242   2.786   2.234   0.996
  236WN      WN  243   0.554   0.860   2.720
  237WN      WN  244   1.883   2.922   1.184
  238WN      WN  245   3.633   1.482   1.365
  239WN      WN  246   1.855   0.115   3.084
  240WN      WN  247   2.635   2.820   2.163
  241WN      WN  248   2.938   3.164   1.871
  242WN      WN  249   2.157   2.966   0.299
  243WN      WN  250   0.167   2.858   3.141
  244WN      WN  251   0.910   0.850   2.379
  245WN      WN  252   0.880   0.198   1.489
  246WN      WN  253   2.501   1.040   2.181
  247WN      WN  254   1.299   2.211   0.381
  248WN      WN  255   3.297   2.153   1.880
  249WN      WN  256   0.624   2.911   3.303
  250WN      WN  257   3.011   3.593   1.100
  251WN      WN  258   1.110   0.613   1.545
  252WN      WN  259   0.879   2.106   1.635
  253WN      WN  260   1.192   3.517   2.385
  254WN      WN  261   3.259   3.613   3.417
  255WN      WN  262   2.418   1.801   2.350
  256WN      WN  263   0.267   1.599   0.265
  257WN      WN  264   3.401   3.257   0.962
  258WN      WN  265   3.238   0.581   0.581
  259WN      WN  266   1.377   0.100   2.984
  260WN      WN  267   3.083   2.902   1.442
  261WN      WN  268   3.112   1.458   1.347
  262WN      WN  269   1.229   1.131   1.563
  263WN      WN  270   1.474   1.393   2.887
  264WN      WN  271   2.585   2.546   2.750
  265WN      WN  272   1.235   1.000   2.862
  266WN      WN  273   1.214   3.466   1.478
  267WN      WN  274   0.531   3.425   3.112
  268WN      WN  275   0.643   2.786   0.242
  269WN      WN  276   3.160   2.544   1.052
  270WN      WN  277   0.764   1.336   2.938
  271WN      WN  278   3.537   1.266   0.419
  272WN      WN  279   1.282   2.323   0.890
  273WN      WN  280   2.381   1.705   2.971
  274WN      WN  281   2.272   1.333   2.515
  275WN      WN  282   0.832   1.705   2.544
  276WN      WN  283   3.042   3.593   2.373
  277WN      WN  284   2.833   0.227   3.367
  278WN      WN  285   0.497   0.377   2.954
  279WN      WN  286   0.836   1.400   2.007
  280WN      WN  287   1.205   1.214   0.129
  281WN      WN  288   0.008   2.973   2.674
  282WN      WN  289   1.593   1.682   2.117
  283WN      WN  290   1.416   0.707   0.222
  284WN      WN  291   0.551   1.523   1.003
  285WN      WN  292   0.322   3.375   2.440
  286WN      WN  293   3.117   1.601   0.548
  287WN      WN  294   3.212   0.517   3.234
  288WN      WN  295   2.648   2.726   1.197
  289WN      WN  296   0.246   1.650   3.374
  290WN      WN  297   3.212   0.114   0.670
  291WN      WN  298   2.732   2.589   0.681
  292WN      WN  299   1.634   1.647   0.766
  293WN      WN  300   2.821   0.451   0.289
  294WN      WN  301   2.886   1.058   2.475
  295WN      WN  302   0.595   1.651   1.682
  296WN      WN  303   0.889   2.590   1.331
  297WN      WN  304   2.652   1.210   1.296
  298WN      WN  305   1.675   0.589   1.992
  299WN      WN  306   3.637   2.500   2.503
  300WN      WN  307   3.555   0.487   2.064
  301WN      WN  308   0.094   3.317   1.440
  302WN      WN  309   0.603   2.504   0.976
  303WN      WN  310   0.518   0.121   3.529
  304WN      WN  311   1.637   2.974   3.631
  305WN      WN  312   3.392   1.942   1.421
  306WN      WN  313   2.746   2.119   0.301
  307WN      WN  314   2.041   3.640   2.513
  308WN      WN  315   2.898   2.362   3.550
  309WN      WN  316   1.713   0.072   0.830
  310WN      WN  317   2.426   0.941   1.689
  311WN      WN  318   0.112   2.528   2.021
  312WN      WN  319   1.365   0.490   0.662
  313WN      WN  320   1.169   1.974   3.511
  314WN      WN  321   2.163   0.955   1.225
  315WN      WN  322   2.368   2.365   2.347
  316WN      WN  323   0.522   2.970   2.782
  317WN      WN  324   1.113   2.953   3.505
  318WN      WN  325   0.964   0.750   0.519
  319WN      WN  326   2.481   0.892   0.844
  320WN      WN  327   2.439   3.000   3.081
  321WN      WN  328   1.124   1.592   1.680
  322WN      WN  329   0.779   3.290   2.545
  323WN      WN  330   3.524   3.407   0.146
  324WN      WN  331   0.387   2.079   3.142
  325WN      WN  332   2.382   2.341   1.830
  326WN      WN  333   0.818   1.990   1.072
  327WN      WN  334   1.189   2.997   2.467
  328WN      WN  335   1.567   0.416   1.508
  329WN      WN  336   0.178   2.400   0.438
  330WN      WN  337   1.697   1.351   0.308
  331WN      WN  338   0.343   1.900   1.327
  332WN      WN  339   1.633   0.542   2.791
  333WN      WN  340   3.305   0.251   0.218
  334WN      WN  341   3.398   1.997   3.317
  335WN      WN  342   2.052   3.254   3.469
  336WN      WN  343   3.610   2.348   2.991
  337WN      WN  344   3.018   3.146   3.602
  338WN      WN  345   0.757   3.602   2.080
  339WN      WN  346   3.616   2.224   0.954
  340WN      WN  347   2.146   1.491   1.467
  341WN      WN  348   1.913   0.103   1.357
  342WN      WN  349   0.972   3.087   1.194
  343WN      WN  350   1.471   0.828   2.419
  344WN      WN  351   1.171   0.197   1.888
  345WN      WN  352   0.234   3.019   0.436
  346WN      WN  353   2.050   2.383   1.154
  347WN      WN  354   0.925   3.178   3.033
  348WN      WN  355   0.402   2.001   0.729
  349WN      WN  356   0.287   0.544   1.728
  350WN      WN  357   1.835   2.509   1.785
  351WN      WN  358   0.087   0.363   0.805
  352WN      WN  359   2.751   1.569   2.732
  353WN      WN  360   2.628   0.955   0.304
  354WN      WN  361   3.145   2.627   1.952
  355WN      WN  362   1.806   3.111   1.783
  356WN      WN  363   1.218   3.215   0.694
  357WN      WN  364   0.300   3.378   1.865
  358WN      WN  365   2.497   1.136   3.500
  359WN      WN  366   0.480   0.666   3.499
  360WN      WN  367   0.211   1.266   0.832
  361WN      WN  368   0.902   1.255   0.557
  362WN      WN  369   2.665   1.582   3.374
  363WN      WN  370   1.008   1.863   2.083
  364WN      WN  371   2.482   0.149   1.203
  365WN      WN  372   1.613   3.580   1.706
  366WN      WN  373   2.827   3.042   2.643
  367WN      WN  374   2.411   3.191   1.754
  368WN      WN  375   2.430   2.171   1.348
  369WN      WN  376   1.892   0.396   0.419
  370WN      WN  377   3.573   0.024   1.141
  371WN      WN  378   1.261   1.659   0.304
  372WN      WN  379   3.427   0.996   1.294
  373WN      WN  380   2.119   2.166   0.171
  374WN      WN  381   3.055   2.366   2.919
  375WN      WN  382   2.709   3.067   0.386
  376WN      WN  383   1.324   0.742   3.292
  377WN      WN  384   1.144   1.326   2.533
  378WN      WN  385   3.236   2.821   2.810
  379WN      WN  386   2.336   0.771   3.187
  380WN      WN  387   0.180   1.242   2.964
  381WN      WN  388   1.940   1.719   2.690
  382WN      WN  389   0.297   2.477   1.347
  383WN      WN  390   0.444   1.774   2.237
  384WN      WN  391   2.761   2.060   2.587
  385WN      WN  392   2.533   3.440   3.398
  386WN      WN  393   2.429   1.179   2.951
  387WN      WN  394   2.706   3.233   1.356
  388WN      WN  395   1.708   2.953   2.679
  389WN      WN  396   1.193   3.308   1.948
  390WN      WN  397   2.998   2.479   2.367
  391WN      WN  398   2.048   2.551   3.504
  392WN      WN  399   0.653   2.504   1.843
  393WN      WN  400   2.999   2.263   1.488
  394WN      WN  401   2.640   3.329   2.239
  395WN      WN  402   0.618   3.058   2.109
  396WN      WN  403   1.639   1.110   3.319
  397WN      WN  404   2.090   3.276   0.830
  398WN      WN  405   1.398   2.531   3.468
  399WN      WN  406   1.524   2.769   0.845
  400WN      WN  407   0.745   1.509   0.104
  401WN      WN  408   3.165   2.218   4.296
  402WN      WN  409   1.213   3.294   3.849
  403WN      WN  410   1.802   2.109   4.430
  404WN      WN  411   2.231   1.301   4.007
  405WN      WN  412   1.788   2.536   3.976
  406WN      WN  413   0.484   0.375   4.811
  407WN      WN  414   3.172   0.769   3.762
  408WN      WN  415   3.378   2.743   4.259
  409WN      WN  416   0.507   3.529   4.013
  410WN      WN  417   0.900   3.575   4.689
  411WN      WN  418   2.725   1.769   4.849
  412WN      WN  419   2.691   1.457   3.876
  413WN      WN  420   3.176   1.809   4.631
  414WN      WN  421   2.078   0.467   4.647
  415WN      WN  422   0.735   3.161   4.330
  416WN      WN  423   1.691   3.234   4.188
  417WN      WN  424   3.083   1.260   3.652
  418WN      WN  425   1.270   1.950   4.915
  419WN      WN  426   0.740   1.989   3.773
  420WN      WN  427   0.395   1.022   3.952
  421WN      WN  428   0.457   2.978   4.746
  422WN      WN  429   1.846   0.962   4.392
  423WN      WN  430   0.012   1.712   4.586
  424WN      WN  431   2.327   1.391   4.537
  425WN      WN  432   2.204   1.881   4.641
  426WN      WN  433   2.193   0.775   4.098
  427WN      WN  434   1.383   1.082   4.255
  428WN      WN  435   3.004   0.850   4.600
  429WN      WN  436   3.371   1.332   4.545
  430WN      WN  437   1.040   0.085   4.251
  431WN      WN  438   3.511   2.868   3.731
  432WN      WN  439   2.335   0.658   3.663
  433WN      WN  440   2.046   2.735   4.390
  434WN      WN  441   2.145   3.302   4.982
  435WN      WN  442   3.319   2.305   3.826
  436WN      WN  443   1.754   1.788   4.887
  437WN      WN  444   2.824   1.318   4.505
  438WN      WN  445   3.111   1.051   4.147
  439WN      WN  446   2.920   3.091   4.536
  440WN      WN  447   2.650   1.773   4.310
  441WN      WN  448   3.303   0.425   4.777
  442WN      WN  449   1.489   3.301   4.742
  443WN      WN  450   0.604   0.481   4.000
  444WN      WN  451   0.736   3.255   3.658
  445WN      WN  452   1.110   1.721   4.409
  446WN      WN  453   1.594   0.708   4.712
  447WN      WN  454   0.942   0.498   4.664
  448WN      WN  455   0.947   0.726   3.689
  449WN      WN  456   1.720   1.862   3.996
  450WN      WN  457   0.988   0.177   3.766
  451WN      WN  458   1.726   1.258   4.817
  452WN      WN  459   0.423   3.482   4.707
  453WN      WN  460   0.790   2.297   4.191
  454WN      WN  461   2.425   2.529   3.877
  455WN      WN  462   3.576   0.828   4.473
  456WN      WN  463   0.054   3.489   4.268
  457WN      WN  464   1.316   2.782   3.923
  458WN      WN  465   3.221   3.164   4.109
  459WN      WN  466   2.196   1.817   4.123
  460WN      WN  467   1.039   1.008   4.640
  461WN      WN  468   1.871   0.918   3.692
  462WN      WN  469   2.808   0.389   4.487
  463WN      WN  470   0.138   0.237   3.935
  464WN      WN  471   0.965   2.424   3.715
  465WN      WN  472   0.206   2.665   4.483
  466WN      WN  473   1.318   0.205   4.748
  467WN      WN  474   2.377   0.282   4.253
  468WN      WN  475   0.481   0.783   4.420
  469WN      WN  476   3.448   1.674   3.721
  470WN      WN  477   0.002   0.694   3.958
  471WN      WN  478   2.013   3.560   3.994
  472WN      WN  479   0.159   2.067   3.691
  473WN      WN  480   3.560   1.919   4.181
  474WN      WN  481   2.423   2.251   4.280
  475WN      WN  482   2.897   3.551   3.975
  476WN      WN  483   1.491   0.117   3.934
  477WN      WN  484   3.030   2.716   3.877
  478WN      WN  485   2.570   3.453   4.391
  479WN      WN  486   1.031   2.736   4.376
  480WN      WN  487   2.786   2.234   4.640
  481WN      WN  488   1.883   2.922   4.828
  482WN      WN  489   2.157   2.966   3.943
  483WN      WN  490   1.299   2.211   4.025
  484WN      WN  491   3.011   3.593   4.744
  485WN      WN  492   0.267   1.599   3.909
  486WN      WN  493   3.401   3.257   4.606
  487WN      WN  494   3.238   0.581   4.225
  488WN      WN  495   0.643   2.786   3.886
  489WN      WN  496   3.160   2.544   4.696
  490WN      WN  497   3.537   1.266   4.063
  491WN      WN  498   1.282   2.323   4.534
  492WN      WN  499   1.205   1.214   3.773
  493WN      WN  500   1.416   0.707   3.866
  494WN      WN  501   0.551   1.523   4.647
  495WN      WN  502   3.117   1.601   4.192
  496WN      WN  503   2.648   2.726   4.841
  497WN      WN  504   3.212   0.114   4.314
  498WN      WN  505   2.732   2.589   4.325
  499WN      WN  506   1.634   1.647   4.410
  500WN      WN  507   2.821   0.451   3.933
  501WN      WN  508   0.094   3.317   5.084
  502WN      WN  509   0.603   2.504   4.620
  503WN      WN  510   2.746   2.119   3.945
  504WN      WN  511   1.713   0.072   4.474
  505WN      WN  512   1.365   0.490   4.306
  506WN      WN  513   0.964   0.750   4.163
  507WN      WN  514   2.481   0.892   4.488
  508WN      WN  515   3.524   3.407   3.790
  509WN      WN  516   0.818   1.990   4.716
  510WN      WN  517   0.178   2.400   4.082
  511WN      WN  518   1.697   1.351   3.952
  512WN      WN  519   3.305   0.251   3.862
  513WN      WN  520   3.616   2.224   4.598
  514WN      WN  521   1.913   0.103   5.001
  515WN      WN  522   0.234   3.019   4.080
  516WN      WN  523   2.050   2.383   4.798
  517WN      WN  524   0.402   2.001   4.373
  518WN      WN  525   0.087   0.363   4.449
  519WN      WN  526   2.628   0.955   3.948
  520WN      WN  527   1.218   3.215   4.338
  521WN      WN  528   2.500   0.118   3.768
  522WN      WN  529   0.211   1.266   4.476
  523WN      WN  530   0.902   1.255   4.201
  524WN      WN  531   1.892   0.396   4.063
  525WN      WN  532   3.573   0.024   4.785
  526WN      WN  533   1.261   1.659   3.948
  527WN      WN  534   2.119   2.166   3.815
  528WN      WN  535   2.709   3.067   4.030
  529WN      WN  536   0.297   2.477   4.991
  530WN      WN  537   2.090   3.276   4.474
  531WN      WN  538   1.524   2.769   4.489
  532WN      WN  539   0.745   1.509   3.748
  533WN      WN  540   0.126   4.406   3.104
  534WN      WN  541   0.888   3.686   2.906
  535WN      WN  542   2.582   4.074   1.793
  536WN      WN  543   2.801   4.379   3.454
  537WN      WN  544   0.167   4.171   2.579
  538WN      WN  545   1.113   4.854   3.262
  539WN      WN  546   0.071   4.902   3.570
  540WN      WN  547   0.484   4.019   1.167
  541WN      WN  548   2.887   4.460   2.023
  542WN      WN  549   3.172   4.413   0.118
  543WN      WN  550   0.697   3.973   2.471
  544WN      WN  551   1.705   4.575   1.571
  545WN      WN  552   2.078   4.111   1.003
  546WN      WN  553   0.106   4.304   1.285
  547WN      WN  554   2.892   4.911   1.759
  548WN      WN  555   3.083   4.904   0.008
  549WN      WN  556   1.292   3.999   2.364
  550WN      WN  557   3.521   3.761   1.661
  551WN      WN  558   0.395   4.666   0.308
  552WN      WN  559   1.846   4.606   0.748
  553WN      WN  560   2.906   4.857   3.118
  554WN      WN  561   0.422   3.738   1.552
  555WN      WN  562   2.190   4.085   2.113
  556WN      WN  563   1.838   4.270   3.276
  557WN      WN  564   2.193   4.419   0.454
  558WN      WN  565   2.343   3.893   3.247
  559WN      WN  566   2.792   4.361   2.965
  560WN      WN  567   2.592   4.299   1.235
  561WN      WN  568   1.383   4.726   0.611
  562WN      WN  569   0.952   4.010   3.275
  563WN      WN  570   1.040   3.729   0.607
  564WN      WN  571   3.361   4.263   1.642
  565WN      WN  572   2.335   4.302   0.019
  566WN      WN  573   3.508   3.828   2.489
  567WN      WN  574   2.120   3.650   1.795
  568WN      WN  575   0.732   4.553   1.858
  569WN      WN  576   3.339   4.543   2.210
  570WN      WN  577   3.606   3.943   2.984
  571WN      WN  578   1.972   4.664   2.023
  572WN      WN  579   2.824   4.962   0.861
  573WN      WN  580   0.339   4.430   2.143
  574WN      WN  581   2.399   4.407   2.606
  575WN      WN  582   3.303   4.069   1.133
  576WN      WN  583   0.077   4.709   2.472
  577WN      WN  584   2.937   4.504   1.490
  578WN      WN  585   3.348   4.655   3.267
  579WN      WN  586   0.604   4.125   0.356
  580WN      WN  587   1.708   3.779   2.166
  581WN      WN  588   1.594   4.352   1.068
  582WN      WN  589   2.950   3.949   1.496
  583WN      WN  590   0.942   4.142   1.020
  584WN      WN  591   0.947   4.370   0.045
  585WN      WN  592   2.596   3.845   2.309
  586WN      WN  593   0.988   3.821   0.122
  587WN      WN  594   2.696   3.878   2.872
  588WN      WN  595   1.989   3.842   3.596
  589WN      WN  596   1.211   4.458   1.989
  590WN      WN  597   0.637   4.414   1.387
  591WN      WN  598   2.097   4.194   1.561
  592WN      WN  599   3.576   4.472   0.829
  593WN      WN  600   1.953   4.403   2.430
  594WN      WN  601   1.039   4.652   0.996
  595WN      WN  602   1.871   4.562   0.048
  596WN      WN  603   2.808   4.033   0.843
  597WN      WN  604   0.138   3.881   0.291
  598WN      WN  605   1.414   3.939   3.467
  599WN      WN  606   2.123   4.081   2.823
  600WN      WN  607   1.318   3.849   1.104
  601WN      WN  608   2.377   3.926   0.609
  602WN      WN  609   0.322   3.858   2.186
  603WN      WN  610   3.059   3.929   1.962
  604WN      WN  611   0.481   4.427   0.776
  605WN      WN  612   3.052   4.115   2.392
  606WN      WN  613   0.740   4.076   1.896
  607WN      WN  614   1.854   4.648   2.836
  608WN      WN  615   0.002   4.338   0.314
  609WN      WN  616   3.174   3.753   2.860
  610WN      WN  617   3.610   4.074   3.465
  611WN      WN  618   1.491   3.761   0.290
  612WN      WN  619   0.799   4.453   3.119
  613WN      WN  620   3.359   4.438   2.779
  614WN      WN  621   1.059   4.132   2.781
  615WN      WN  622   0.554   4.504   2.720
  616WN      WN  623   1.855   3.759   3.084
  617WN      WN  624   0.910   4.494   2.379
  618WN      WN  625   0.880   3.842   1.489
  619WN      WN  626   2.501   4.684   2.181
  620WN      WN  627   1.110   4.257   1.545
  621WN      WN  628   1.377   3.744   2.984
  622WN      WN  629   1.229   4.775   1.563
  623WN      WN  630   1.235   4.644   2.862
  624WN      WN  631   3.537   4.910   0.419
  625WN      WN  632   2.272   4.977   2.515
  626WN      WN  633   2.833   3.871   3.367
  627WN      WN  634   0.497   4.021   2.954
  628WN      WN  635   1.416   4.351   0.222
  629WN      WN  636   3.212   4.161   3.234
  630WN      WN  637   3.212   3.758   0.670
  631WN      WN  638   2.821   4.095   0.289
  632WN      WN  639   2.886   4.702   2.475
  633WN      WN  640   1.675   4.233   1.992
  634WN      WN  641   3.555   4.131   2.064
  635WN      WN  642   0.518   3.765   3.529
  636WN      WN  643   1.713   3.716   0.830
  637WN      WN  644   2.426   4.585   1.689
  638WN      WN  645   1.365   4.134   0.662
  639WN      WN  646   2.163   4.599   1.225
  640WN      WN  647   0.964   4.394   0.519
  641WN      WN  648   2.481   4.536   0.844
  642WN      WN  649   1.567   4.060   1.508
  643WN      WN  650   1.633   4.186   2.791
  644WN      WN  651   3.305   3.895   0.218
  645WN      WN  652   1.913   3.747   1.357
  646WN      WN  653   1.471   4.472   2.419
  647WN      WN  654   1.171   3.841   1.888
  648WN      WN  655   0.287   4.188   1.728
  649WN      WN  656   0.087   4.007   0.805
  650WN      WN  657   2.500   3.762   0.124
  651WN      WN  658   2.497   4.780   3.500
  652WN      WN  659   0.480   4.310   3.499
  653WN      WN  660   0.211   4.910   0.832
  654WN      WN  661   2.482   3.793   1.203
  655WN      WN  662   1.892   4.040   0.419
  656WN      WN  663   3.573   3.668   1.141
  657WN      WN  664   3.427   4.640   1.294
  658WN      WN  665   1.324   4.386   3.292
  659WN      WN  666   1.144   4.970   2.533
  660WN      WN  667   2.336   4.415   3.187
  661WN      WN  668   0.180   4.886   2.964
  662WN      WN  669   2.429   4.823   2.951
  663WN      WN  670   1.639   4.754   3.319
  664WN      WN  671   0.484   4.019   4.811
  665WN      WN  672   3.172   4.413   3.762
  666WN      WN  673   2.078   4.111   4.647
  667WN      WN  674   3.083   4.904   3.652
  668WN      WN  675   0.395   4.666   3.952
  669WN      WN  676   1.846   4.606   4.392
  670WN      WN  677   2.193   4.419   4.098
  671WN      WN  678   1.383   4.726   4.255
  672WN      WN  679   3.004   4.494   4.600
  673WN      WN  680   1.040   3.729   4.251
  674WN      WN  681   2.335   4.302   3.663
  675WN      WN  682   2.824   4.962   4.505
  676WN      WN  683   3.111   4.695   4.147
  677WN      WN  684   3.303   4.069   4.777
  678WN      WN  685   0.604   4.125   4.000
  679WN      WN  686   1.594   4.352   4.712
  680WN      WN  687   0.942   4.142   4.664
  681WN      WN  688   0.947   4.370   3.689
  682WN      WN  689   0.988   3.821   3.766
  683WN      WN  690   3.576   4.472   4.473
  684WN      WN  691   1.039   4.652   4.640
  685WN      WN  692   1.871   4.562   3.692
  686WN      WN  693   2.808   4.033   4.487
  687WN      WN  694   0.138   3.881   3.935
  688WN      WN  695   1.318   3.849   4.748
  689WN      WN  696   2.377   3.926   4.253
  690WN      WN  697   0.481   4.427   4.420
  691WN      WN  698   0.002   4.338   3.958
  692WN      WN  699   1.491   3.761   3.934
  693WN      WN  700   3.238   4.225   4.225
  694WN      WN  701   1.229   4.775   5.207
  695WN      WN  702   3.537   4.910   4.063
  696WN      WN  703   1.416   4.351   3.866
  697WN      WN  704   3.212   3.758   4.314
  698WN      WN  705   2.821   4.095   3.933
  699WN      WN  706   1.713   3.716   4.474
  700WN      WN  707   1.365   4.134   4.306
  701WN      WN  708   0.964   4.394   4.163
  702WN      WN  709   2.481   4.536   4.488
  703WN      WN  710   3.305   3.895   3.862
  704WN      WN  711   0.087   4.007   4.449
  705WN      WN  712   2.628   4.599   3.948
  706WN      WN  713   2.500   3.762   3.768
  707WN      WN  714   0.211   4.910   4.476
  708WN      WN  715   1.892   4.040   4.063
  709WN      WN  716   3.573   3.668   4.785
  710WN      WN  717   3.728   3.595   3.359
  711WN      WN  718   4.104   2.488   2.882
  712WN      WN  719   4.455   1.294   1.352
  713WN      WN  720   3.770   0.762   3.104
  714WN      WN  721   4.532   0.042   2.906
  715WN      WN  722   3.811   0.527   2.579
  716WN      WN  723   3.910   3.146   3.600
  717WN      WN  724   3.864   1.319   2.025
  718WN      WN  725   4.757   1.210   3.262
  719WN      WN  726   4.334   2.218   2.248
  720WN      WN  727   3.693   1.746   1.819
  721WN      WN  728   4.729   1.718   3.011
  722WN      WN  729   4.616   2.945   1.710
  723WN      WN  730   3.715   1.258   3.570
  724WN      WN  731   4.128   0.375   1.167
  725WN      WN  732   4.655   2.633   2.166
  726WN      WN  733   4.151   3.529   0.369
  727WN      WN  734   4.544   3.575   1.045
  728WN      WN  735   4.341   0.329   2.471
  729WN      WN  736   4.379   3.161   0.686
  730WN      WN  737   3.750   0.660   1.285
  731WN      WN  738   3.994   2.884   1.674
  732WN      WN  739   3.750   3.018   2.172
  733WN      WN  740   4.541   2.590   2.652
  734WN      WN  741   4.384   1.989   0.129
  735WN      WN  742   4.039   1.022   0.308
  736WN      WN  743   4.101   2.978   1.102
  737WN      WN  744   3.656   1.712   0.942
  738WN      WN  745   4.191   1.301   2.471
  739WN      WN  746   4.176   1.177   3.393
  740WN      WN  747   4.066   0.094   1.552
  741WN      WN  748   4.369   3.365   1.625
  742WN      WN  749   4.596   0.366   3.275
  743WN      WN  750   4.684   0.085   0.607
  744WN      WN  751   4.062   2.071   1.789
  745WN      WN  752   4.376   0.909   1.858
  746WN      WN  753   3.930   2.109   2.632
  747WN      WN  754   3.983   0.786   2.143
  748WN      WN  755   3.721   1.065   2.472
  749WN      WN  756   4.248   0.481   0.356
  750WN      WN  757   4.380   3.255   0.014
  751WN      WN  758   4.586   0.498   1.020
  752WN      WN  759   4.591   0.726   0.045
  753WN      WN  760   3.660   2.044   2.194
  754WN      WN  761   4.632   0.177   0.122
  755WN      WN  762   4.928   2.246   2.981
  756WN      WN  763   4.855   0.814   1.989
  757WN      WN  764   4.281   0.770   1.387
  758WN      WN  765   4.067   3.482   1.063
  759WN      WN  766   4.434   2.297   0.547
  760WN      WN  767   3.714   3.417   2.860
  761WN      WN  768   4.131   2.643   2.392
  762WN      WN  769   3.698   3.489   0.624
  763WN      WN  770   4.683   1.008   0.996
  764WN      WN  771   3.782   0.237   0.291
  765WN      WN  772   5.068   2.556   2.581
  766WN      WN  773   4.867   2.472   1.673
  767WN      WN  774   4.609   2.424   0.071
  768WN      WN  775   3.850   2.665   0.839
  769WN      WN  776   4.354   1.735   3.281
  770WN      WN  777   3.966   0.214   2.186
  771WN      WN  778   4.014   1.177   1.556
  772WN      WN  779   4.125   0.783   0.776
  773WN      WN  780   4.384   0.432   1.896
  774WN      WN  781   3.646   0.694   0.314
  775WN      WN  782   4.432   2.083   2.875
  776WN      WN  783   3.803   2.067   0.047
  777WN      WN  784   4.538   2.478   3.173
  778WN      WN  785   4.059   1.645   2.804
  779WN      WN  786   5.050   1.750   2.598
  780WN      WN  787   4.048   2.508   3.513
  781WN      WN  788   4.443   0.809   3.119
  782WN      WN  789   4.703   0.488   2.781
  783WN      WN  790   4.675   2.736   0.732
  784WN      WN  791   4.198   0.860   2.720
  785WN      WN  792   3.811   2.858   3.141
  786WN      WN  793   4.554   0.850   2.379
  787WN      WN  794   4.524   0.198   1.489
  788WN      WN  795   4.268   2.911   3.303
  789WN      WN  796   4.754   0.613   1.545
  790WN      WN  797   4.523   2.106   1.635
  791WN      WN  798   4.836   3.517   2.385
  792WN      WN  799   3.911   1.599   0.265
  793WN      WN  800   4.873   1.131   1.563
  794WN      WN  801   4.175   3.425   3.112
  795WN      WN  802   4.287   2.786   0.242
  796WN      WN  803   4.408   1.336   2.938
  797WN      WN  804   4.926   2.323   0.890
  798WN      WN  805   4.476   1.705   2.544
  799WN      WN  806   4.141   0.377   2.954
  800WN      WN  807   4.480   1.400   2.007
  801WN      WN  808   4.849   1.214   0.129
  802WN      WN  809   3.652   2.973   2.674
  803WN      WN  810   4.195   1.523   1.003
  804WN      WN  811   3.966   3.375   2.440
  805WN      WN  812   3.890   1.650   3.374
  806WN      WN  813   4.239   1.651   1.682
  807WN      WN  814   4.533   2.590   1.331
  808WN      WN  815   3.738   3.317   1.440
  809WN      WN  816   4.247   2.504   0.976
  810WN      WN  817   4.162   0.121   3.529
  811WN      WN  818   3.756   2.528   2.021
  812WN      WN  819   4.166   2.970   2.782
  813WN      WN  820   4.757   2.953   3.505
  814WN      WN  821   4.608   0.750   0.519
  815WN      WN  822   4.423   3.290   2.545
  816WN      WN  823   4.031   2.079   3.142
  817WN      WN  824   4.462   1.990   1.072
  818WN      WN  825   3.822   2.400   0.438
  819WN      WN  826   3.987   1.900   1.327
  820WN      WN  827   4.401   3.602   2.080
  821WN      WN  828   4.616   3.087   1.194
  822WN      WN  829   4.815   0.197   1.888
  823WN      WN  830   3.878   3.019   0.436
  824WN      WN  831   4.569   3.178   3.033
  825WN      WN  832   4.046   2.001   0.729
  826WN      WN  833   3.931   0.544   1.728
  827WN      WN  834   3.731   0.363   0.805
  828WN      WN  835   3.944   3.378   1.865
  829WN      WN  836   4.124   0.666   3.499
  830WN      WN  837   3.855   1.266   0.832
  831WN      WN  838   4.546   1.255   0.557
  832WN      WN  839   4.652   1.863   2.083
  833WN      WN  840   3.824   1.242   2.964
  834WN      WN  841   3.941   2.477   1.347
  835WN      WN  842   4.088   1.774   2.237
  836WN      WN  843   4.837   3.308   1.948
  837WN      WN  844   4.297   2.504   1.843
  838WN      WN  845   4.262   3.058   2.109
  839WN      WN  846   4.389   1.509   0.104
  840WN      WN  847   4.857   3.294   3.849
  841WN      WN  848   4.128   0.375   4.811
  842WN      WN  849   4.151   3.529   4.013
  843WN      WN  850   4.544   3.575   4.689
  844WN      WN  851   4.379   3.161   4.330
  845WN      WN  852   4.384   1.989   3.773
  846WN      WN  853   4.039   1.022   3.952
  847WN      WN  854   4.101   2.978   4.746
  848WN      WN  855   3.656   1.712   4.586
  849WN      WN  856   4.684   0.085   4.251
  850WN      WN  857   4.248   0.481   4.000
  851WN      WN  858   4.380   3.255   3.658
  852WN      WN  859   4.586   0.498   4.664
  853WN      WN  860   4.591   0.726   3.689
  854WN      WN  861   4.632   0.177   3.766
  855WN      WN  862   4.067   3.482   4.707
  856WN      WN  863   4.434   2.297   4.191
  857WN      WN  864   3.698   3.489   4.268
  858WN      WN  865   4.683   1.008   4.640
  859WN      WN  866   3.782   0.237   3.935
  860WN      WN  867   4.609   2.424   3.715
  861WN      WN  868   3.850   2.665   4.483
  862WN      WN  869   4.125   0.783   4.420
  863WN      WN  870   3.646   0.694   3.958
  864WN      WN  871   3.803   2.067   3.691
  865WN      WN  872   4.675   2.736   4.376
  866WN      WN  873   3.911   1.599   3.909
  867WN      WN  874   4.287   2.786   3.886
  868WN      WN  875   4.926   2.323   4.534
  869WN      WN  876   4.195   1.523   4.647
  870WN      WN  877   4.247   2.504   4.620
  871WN      WN  878   4.608   0.750   4.163
  872WN      WN  879   4.768   1.592   5.324
  873WN      WN  880   4.462   1.990   4.716
  874WN      WN  881   3.822   2.400   4.082
  875WN      WN  882   3.878   3.019   4.080
  876WN      WN  883   4.046   2.001   4.373
  877WN      WN  884   3.731   0.363   4.449
  878WN      WN  885   3.855   1.266   4.476
  879WN      WN  886   4.546   1.255   4.201
  880WN      WN  887   3.941   2.477   4.991
  881WN      WN  888   4.389   1.509   3.748
  882WN      WN  889   4.940   5.090   1.188
  883WN      WN  890   3.770   4.406   3.104
  884WN      WN  891   4.532   3.686   2.906
  885WN      WN  892   3.811   4.171   2.579
  886WN      WN  893   4.757   4.854   3.262
  887WN      WN  894   3.715   4.902   3.570
  888WN      WN  895   4.128   4.019   1.167
  889WN      WN  896   4.341   3.973   2.471
  890WN      WN  897   3.750   4.304   1.285
  891WN      WN  898   4.039   4.666   0.308
  892WN      WN  899   4.066   3.738   1.552
  893WN      WN  900   4.596   4.010   3.275
  894WN      WN  901   4.684   3.729   0.607
  895WN      WN  902   4.376   4.553   1.858
  896WN      WN  903   3.983   4.430   2.143
  897WN      WN  904   3.721   4.709   2.472
  898WN      WN  905   4.248   4.125   0.356
  899WN      WN  906   4.586   4.142   1.020
  900WN      WN  907   4.591   4.370   0.045
  901WN      WN  908   4.632   3.821   0.122
  902WN      WN  909   4.855   4.458   1.989
  903WN      WN  910   4.281   4.414   1.387
  904WN      WN  911   4.683   4.652   0.996
  905WN      WN  912   3.782   3.881   0.291
  906WN      WN  913   3.966   3.858   2.186
  907WN      WN  914   4.125   4.427   0.776
  908WN      WN  915   4.384   4.076   1.896
  909WN      WN  916   3.646   4.338   0.314
  910WN      WN  917   4.443   4.453   3.119
  911WN      WN  918   4.703   4.132   2.781
  912WN      WN  919   4.198   4.504   2.720
  913WN      WN  920   4.554   4.494   2.379
  914WN      WN  921   4.524   3.842   1.489
  915WN      WN  922   4.754   4.257   1.545
  916WN      WN  923   4.873   4.775   1.563
  917WN      WN  924   4.141   4.021   2.954
  918WN      WN  925   4.162   3.765   3.529
  919WN      WN  926   4.608   4.394   0.519
  920WN      WN  927   4.815   3.841   1.888
  921WN      WN  928   3.931   4.188   1.728
  922WN      WN  929   3.731   4.007   0.805
  923WN      WN  930   4.124   4.310   3.499
  924WN      WN  931   3.855   4.910   0.832
  925WN      WN  932   3.824   4.886   2.964
  926WN      WN  933   4.940   5.090   4.832
  927WN      WN  934   4.128   4.019   4.811
  928WN      WN  935   4.039   4.666   3.952
  929WN      WN  936   4.684   3.729   4.251
  930WN      WN  937   4.248   4.125   4.000
  931WN      WN  938   4.586   4.142   4.664
  932WN      WN  939   4.591   4.370   3.689
  933WN      WN  940   4.632   3.821   3.766
  934WN      WN  941   4.683   4.652   4.640
  935WN      WN  942   3.782   3.881   3.935
  936WN      WN  943   4.125   4.427   4.420
  937WN      WN  944   3.646   4.338   3.958
  938WN      WN  945   4.873   4.775   5.207
  939WN      WN  946   4.608   4.394   4.163
  940WN      WN  947   3.731   4.007   4.449
  941WN      WN  948   3.855   4.910   4.476
   5.00000   5.00000   5.00000
