; Include forcefield paraQUEers
#include "martini_v3.0.b.3.2.itp"
#include "martini_v3.0_solvents.itp"
#include "martini_v3.0_phospholipids.itp"
#include "cg_model.itp"


[ system ]
; Name
QUE in water

[ molecules ]
; Compound        #mols
QUE                1
WN                 940
               