[ moleculetype ]
; molname        nrexcl
MET               1


[ atoms ] 
; id type   METnr   METidue  atom   cgnr    charge

 1     SC3     1      MET     PA1    1      0.00000
 2     SP1     1      MET     PA2    2      0.00000
 3     TC3     1      MET     PA3    3      0.00000
 4     SC2     1      MET     PA4    4      0.00000


[ bonds ]
;   i     j   funct   length   force.c.

; bond group 1
    3     4       1        0         0           ; 

[ constraints ]
;   i     j   funct   length   

; constraint group 1
    1     2       1        0                  ; 

; constraint group 2
    1     3       1        0                  ; 
	
; constraint group 3
    3     2       1        0                  ; 

[ angles ]
;   i     j     k    funct     angle   force.c.

; angle group 1
    1     2     3      2       0         0           ; 

; angle group 2
    1     3     2      2       0         0           ;

; angle group 3
    4     3     1      2       0         0           ; 

; angle group 4
    4     2     1      2       0         0           ;
    
 [ dihedrals ]
;   i     j     k    l   funct     angle   force.c.

; dihedral group 1
    1    2   3   4       1       15         10      1     ; 
	
