[ moleculetype ]
; molname        nrexcl
MET              1


[ atoms ]
; id type resnr residue   atom  cgnr    charge     mass

1     SC3     1     MET    PA1  1      0.00000     54.00
2     SP1     1     MET    PA2  2      0.00000     54.00
3     TC3     1     MET    PA3  3      0.00000     36.00
4     SC2     1     MET    PA4  4      0.00000     54.00


[ constraints ]
;   i     j   funct   length

; constraint type 1
    1     2       1    0.308      ; 1

; constraint type 2
    1     3       1    0.284      ; 2

; constraint type 3
    3     2       1    0.248      ; 3


[ bonds ]
;   i     j   funct   length   force.c.

; bond type 1
    3     4       1    0.219  11548.73           ; 1


[ angles ]
;   i     j     k   funct     angle   force.c.

; angle type 1
    1     2     3       2     59.80    511.89           ; 1

; angle type 2
    1     3     2       2     70.20    609.72           ; 2

; angle type 3
    4     3     1       2    149.69    440.84           ; 3

; angle type 4
    4     2     1       2    105.99    736.80           ; 4


[ dihedrals ]
;   i     j     k     l   funct     dihedral   force.c.   mult.

; dihedral type 1
    1     2     3     4       1       172.31   -4.52       1     ; 1


