; Include forcefield parameters
#include "martini_v3.0.b.3.2.itp"
#include "martini_v3.0_solvents.itp"
#include "martini_v3.0_phospholipids.itp"
#include "cg_model.itp"


[ system ]
; Name
MET in water

[ molecules ]
; Compound        #mols
MET                1
WN                 944
               