[ moleculetype ]
; molname        nrexcl
PUE               1


[ atoms ] 
; id type   resnr   residue  atom   cgnr    charge

 1     SP1     1      PUE     PA1    1      0.00000
 2     TC5     1      PUE     PA2    2      0.00000
 3     TC5     1      PUE     PA3    3      0.00000
 4     N3a     1      PUE     PA4    4      0.00000
 5    SN2a     1      PUE     PA5    5      0.00000
 6     TC5     1      PUE     PA6    6      0.00000
 7     SP1     1      PUE     PA7    7      0.00000
 8    TN2a     1      PUE     PA8    8      0.00000
 9      N3     1      PUE     PA9    9      0.00000
10      N3     1      PUE     PB1    10     0.00000


[ bonds ]
;   i     j   funct   length   force.c.

; bond group 1
    1     2       1        0         0           ; 

; bond group 2
    1     3       1        0         0           ;
	
; bond group 3
    2     3       1        0         0           ; 

; bond group 4
    4     5       1        0         0           ; 

; bond group 5
    5     7       1        0         0           ; 

; bond group 6
    6     7       1        0         0           ; 

; bond group 7
    4     6       1        0         0           ; 	

; bond group 8
    8     9       1        0         0           ; 

; bond group 9
    8     10       1        0         0           ; 

; bond group 10
    9     10       1        0         0           ; 		

; bond group 11
    3     4       1        0         0           ; 

; bond group 12
    7     8       1        0         0           ; 


	
[ angles ]
;   i     j     k   funct     angle   force.c.

; angle type 1
    1     3     4       2      0         0           ; 1

; angle type 2
    2     3     4       2      0         0           ; 1
	
; angle type 3
    7     8     9       2      0         0           ; 1

; angle type 4
    7     8    10       2      0         0           ; 1
                                                                 [ dihedrals ]
;   i     j     k     l    funct     angle   force.c.

; angle type 1
    4     5     7     6      2      0         0           ; 1

; angle type 2
    5     4     7     6      2      0         0           ; 1
       