frame t= 0.000
  950
    1PUE    PA1    1   5.002   0.867   2.089
    1PUE    PA2    2   4.913   0.850   2.330
    1PUE    PA3    3   4.944   1.070   2.341
    1PUE    PA4    4   4.749   1.187   2.522
    1PUE    PA5    5   4.890   1.143   2.719
    1PUE    PA6    6   4.603   1.379   2.731
    1PUE    PA7    7   4.691   1.363   2.954
    1PUE    PA8    8   4.823   1.218   3.078
    1PUE    PA9    9   4.864   1.149   3.326
    1PUE    PB1   10   5.067   1.355   3.084
    2WN      WN   11   0.084   3.595   3.359
    3WN      WN   12   0.460   2.488   2.882
    4WN      WN   13   3.165   2.218   0.652
    5WN      WN   14   3.295   3.303   2.679
    6WN      WN   15   1.213   3.294   0.205
    7WN      WN   16   1.296   1.446   1.188
    8WN      WN   17   0.811   1.294   1.352
    9WN      WN   18   1.802   2.109   0.786
   10WN      WN   19   1.477   3.201   3.141
   11WN      WN   20   0.126   0.762   3.104
   12WN      WN   21   0.888   0.042   2.906
   13WN      WN   22   2.582   0.430   1.793
   14WN      WN   23   2.231   1.301   0.363
   15WN      WN   24   2.801   0.735   3.454
   16WN      WN   25   0.167   0.527   2.579
   17WN      WN   26   0.266   3.146   3.600
   18WN      WN   27   1.788   2.536   0.332
   19WN      WN   28   0.220   1.319   2.025
   20WN      WN   29   1.113   1.210   3.262
   21WN      WN   30   3.572   1.069   1.761
   22WN      WN   31   3.336   2.112   2.620
   23WN      WN   32   1.644   1.445   1.647
   24WN      WN   33   2.190   2.784   2.016
   25WN      WN   34   0.690   2.218   2.248
   26WN      WN   35   0.049   1.746   1.819
   27WN      WN   36   1.085   1.718   3.011
   28WN      WN   37   3.356   1.501   3.265
   29WN      WN   38   0.972   2.945   1.710
   30WN      WN   39   2.093   2.634   2.844
   31WN      WN   40   1.313   1.274   2.069
   32WN      WN   41   1.605   2.058   1.712
   33WN      WN   42   2.602   2.831   3.560
   34WN      WN   43   1.681   2.151   3.570
   35WN      WN   44   1.662   1.867   3.048
   36WN      WN   45   0.071   1.258   3.570
   37WN      WN   46   2.903   2.793   3.169
   38WN      WN   47   0.484   0.375   1.167
   39WN      WN   48   1.011   2.633   2.166
   40WN      WN   49   3.474   2.416   1.456
   41WN      WN   50   2.887   0.816   2.023
   42WN      WN   51   3.172   0.769   0.118
   43WN      WN   52   3.637   1.570   2.424
   44WN      WN   53   1.604   3.277   2.177
   45WN      WN   54   3.378   2.743   0.615
   46WN      WN   55   0.507   3.529   0.369
   47WN      WN   56   0.900   3.575   1.045
   48WN      WN   57   0.697   0.329   2.471
   49WN      WN   58   3.320   1.347   2.746
   50WN      WN   59   2.725   1.769   1.205
   51WN      WN   60   2.691   1.457   0.232
   52WN      WN   61   1.899   2.601   2.372
   53WN      WN   62   1.705   0.931   1.571
   54WN      WN   63   2.305   3.018   2.565
   55WN      WN   64   3.176   1.809   0.987
   56WN      WN   65   2.078   0.467   1.003
   57WN      WN   66   0.735   3.161   0.686
   58WN      WN   67   0.106   0.660   1.285
   59WN      WN   68   2.892   1.267   1.759
   60WN      WN   69   0.350   2.884   1.674
   61WN      WN   70   1.691   3.234   0.544
   62WN      WN   71   3.083   1.260   0.008
   63WN      WN   72   0.106   3.018   2.172
   64WN      WN   73   0.897   2.590   2.652
   65WN      WN   74   1.270   1.950   1.271
   66WN      WN   75   1.292   0.355   2.364
   67WN      WN   76   3.521   0.117   1.661
   68WN      WN   77   0.740   1.989   0.129
   69WN      WN   78   0.395   1.022   0.308
   70WN      WN   79   0.457   2.978   1.102
   71WN      WN   80   1.588   2.461   1.350
   72WN      WN   81   2.920   3.320   3.064
   73WN      WN   82   1.846   0.962   0.748
   74WN      WN   83   3.229   3.360   1.520
   75WN      WN   84   2.906   1.213   3.118
   76WN      WN   85   3.619   2.869   1.252
   77WN      WN   86   2.246   2.161   2.736
   78WN      WN   87   0.012   1.712   0.942
   79WN      WN   88   1.123   2.127   2.515
   80WN      WN   89   2.327   1.391   0.893
   81WN      WN   90   2.204   1.881   0.997
   82WN      WN   91   0.547   1.301   2.471
   83WN      WN   92   0.532   1.177   3.393
   84WN      WN   93   0.422   0.094   1.552
   85WN      WN   94   2.190   0.441   2.113
   86WN      WN   95   1.838   0.626   3.276
   87WN      WN   96   2.193   0.775   0.454
   88WN      WN   97   3.376   3.168   3.208
   89WN      WN   98   2.343   0.249   3.247
   90WN      WN   99   3.362   2.550   3.369
   91WN      WN  100   2.792   0.717   2.965
   92WN      WN  101   2.592   0.655   1.235
   93WN      WN  102   2.985   1.789   3.639
   94WN      WN  103   0.725   3.365   1.625
   95WN      WN  104   1.383   1.082   0.611
   96WN      WN  105   0.952   0.366   3.275
   97WN      WN  106   3.004   0.850   0.956
   98WN      WN  107   3.371   1.332   0.901
   99WN      WN  108   1.114   3.549   3.372
  100WN      WN  109   1.040   0.085   0.607
  101WN      WN  110   3.361   0.619   1.642
  102WN      WN  111   3.511   2.868   0.087
  103WN      WN  112   0.418   2.071   1.789
  104WN      WN  113   2.335   0.658   0.019
  105WN      WN  114   3.469   2.990   1.739
  106WN      WN  115   3.508   0.184   2.489
  107WN      WN  116   1.953   1.396   3.043
  108WN      WN  117   2.046   2.735   0.746
  109WN      WN  118   2.446   2.029   3.486
  110WN      WN  119   2.120   0.006   1.795
  111WN      WN  120   0.732   0.909   1.858
  112WN      WN  121   0.286   2.109   2.632
  113WN      WN  122   2.145   3.302   1.338
  114WN      WN  123   3.339   0.899   2.210
  115WN      WN  124   1.976   3.246   2.977
  116WN      WN  125   3.319   2.305   0.182
  117WN      WN  126   1.754   1.788   1.243
  118WN      WN  127   3.606   0.299   2.984
  119WN      WN  128   1.755   2.134   2.578
  120WN      WN  129   1.972   1.020   2.023
  121WN      WN  130   2.824   1.318   0.861
  122WN      WN  131   3.111   1.051   0.503
  123WN      WN  132   2.920   3.091   0.892
  124WN      WN  133   2.754   2.694   1.688
  125WN      WN  134   2.650   1.773   0.666
  126WN      WN  135   2.083   1.983   1.652
  127WN      WN  136   2.964   1.771   1.719
  128WN      WN  137   0.339   0.786   2.143
  129WN      WN  138   3.117   1.838   2.970
  130WN      WN  139   3.468   3.456   2.116
  131WN      WN  140   1.398   2.900   1.518
  132WN      WN  141   2.405   3.433   2.842
  133WN      WN  142   2.399   0.763   2.606
  134WN      WN  143   1.606   3.471   2.667
  135WN      WN  144   3.303   0.425   1.133
  136WN      WN  145   3.094   1.744   2.434
  137WN      WN  146   2.937   0.860   1.490
  138WN      WN  147   3.348   1.011   3.267
  139WN      WN  148   2.233   2.710   1.485
  140WN      WN  149   1.489   3.301   1.098
  141WN      WN  150   0.604   0.481   0.356
  142WN      WN  151   1.708   0.135   2.166
  143WN      WN  152   0.736   3.255   0.014
  144WN      WN  153   1.110   1.721   0.765
  145WN      WN  154   1.764   2.350   3.078
  146WN      WN  155   1.594   0.708   1.068
  147WN      WN  156   2.950   0.305   1.496
  148WN      WN  157   2.670   3.587   1.824
  149WN      WN  158   2.082   3.235   2.164
  150WN      WN  159   1.478   2.272   2.125
  151WN      WN  160   3.248   2.995   2.251
  152WN      WN  161   0.942   0.498   1.020
  153WN      WN  162   1.464   2.795   1.980
  154WN      WN  163   0.947   0.726   0.045
  155WN      WN  164   1.748   1.335   2.439
  156WN      WN  165   2.596   0.201   2.309
  157WN      WN  166   0.016   2.044   2.194
  158WN      WN  167   1.720   1.862   0.352
  159WN      WN  168   0.988   0.177   0.122
  160WN      WN  169   1.726   1.258   1.173
  161WN      WN  170   2.696   0.234   2.872
  162WN      WN  171   1.284   2.246   2.981
  163WN      WN  172   2.088   2.028   3.198
  164WN      WN  173   2.705   2.058   3.091
  165WN      WN  174   1.989   0.198   3.596
  166WN      WN  175   1.211   0.814   1.989
  167WN      WN  176   0.637   0.770   1.387
  168WN      WN  177   0.423   3.482   1.063
  169WN      WN  178   1.755   2.812   3.188
  170WN      WN  179   0.790   2.297   0.547
  171WN      WN  180   2.470   1.682   1.768
  172WN      WN  181   2.750   1.481   2.167
  173WN      WN  182   1.955   2.155   2.101
  174WN      WN  183   2.425   2.529   0.233
  175WN      WN  184   2.097   0.550   1.561
  176WN      WN  185   3.576   0.828   0.829
  177WN      WN  186   0.070   3.417   2.860
  178WN      WN  187   0.487   2.643   2.392
  179WN      WN  188   0.054   3.489   0.624
  180WN      WN  189   1.953   0.759   2.430
  181WN      WN  190   1.316   2.782   0.279
  182WN      WN  191   3.221   3.164   0.465
  183WN      WN  192   2.196   1.817   0.479
  184WN      WN  193   1.039   1.008   0.996
  185WN      WN  194   1.871   0.918   0.048
  186WN      WN  195   2.455   2.483   3.226
  187WN      WN  196   2.808   0.389   0.843
  188WN      WN  197   0.138   0.237   0.291
  189WN      WN  198   1.424   2.556   2.581
  190WN      WN  199   1.223   2.472   1.673
  191WN      WN  200   0.965   2.424   0.071
  192WN      WN  201   0.206   2.665   0.839
  193WN      WN  202   0.710   1.735   3.281
  194WN      WN  203   1.414   0.295   3.467
  195WN      WN  204   2.123   0.437   2.823
  196WN      WN  205   1.318   0.205   1.104
  197WN      WN  206   2.377   0.282   0.609
  198WN      WN  207   0.322   0.214   2.186
  199WN      WN  208   0.370   1.177   1.556
  200WN      WN  209   3.059   0.285   1.962
  201WN      WN  210   0.481   0.783   0.776
  202WN      WN  211   3.052   0.471   2.392
  203WN      WN  212   3.448   1.674   0.077
  204WN      WN  213   0.740   0.432   1.896
  205WN      WN  214   1.854   1.004   2.836
  206WN      WN  215   0.002   0.694   0.314
  207WN      WN  216   0.788   2.083   2.875
  208WN      WN  217   2.146   1.481   2.054
  209WN      WN  218   2.013   3.560   0.350
  210WN      WN  219   0.159   2.067   0.047
  211WN      WN  220   0.894   2.478   3.173
  212WN      WN  221   0.415   1.645   2.804
  213WN      WN  222   1.406   1.750   2.598
  214WN      WN  223   3.174   0.109   2.860
  215WN      WN  224   3.572   1.719   2.851
  216WN      WN  225   3.560   1.919   0.537
  217WN      WN  226   2.423   2.251   0.636
  218WN      WN  227   2.897   3.551   0.331
  219WN      WN  228   2.074   1.541   3.473
  220WN      WN  229   0.404   2.508   3.513
  221WN      WN  230   3.610   0.430   3.465
  222WN      WN  231   3.328   1.358   2.086
  223WN      WN  232   1.636   3.488   3.563
  224WN      WN  233   1.491   0.117   0.290
  225WN      WN  234   3.030   2.716   0.233
  226WN      WN  235   0.799   0.809   3.119
  227WN      WN  236   1.233   2.803   2.981
  228WN      WN  237   3.359   0.794   2.779
  229WN      WN  238   2.570   3.453   0.747
  230WN      WN  239   2.809   2.072   2.114
  231WN      WN  240   1.059   0.488   2.781
  232WN      WN  241   1.528   1.557   3.538
  233WN      WN  242   1.031   2.736   0.732
  234WN      WN  243   2.786   2.234   0.996
  235WN      WN  244   0.554   0.860   2.720
  236WN      WN  245   1.883   2.922   1.184
  237WN      WN  246   3.633   1.482   1.365
  238WN      WN  247   1.855   0.115   3.084
  239WN      WN  248   2.635   2.820   2.163
  240WN      WN  249   2.938   3.164   1.871
  241WN      WN  250   2.157   2.966   0.299
  242WN      WN  251   0.167   2.858   3.141
  243WN      WN  252   0.910   0.850   2.379
  244WN      WN  253   0.880   0.198   1.489
  245WN      WN  254   2.501   1.040   2.181
  246WN      WN  255   1.299   2.211   0.381
  247WN      WN  256   3.297   2.153   1.880
  248WN      WN  257   0.624   2.911   3.303
  249WN      WN  258   3.011   3.593   1.100
  250WN      WN  259   1.110   0.613   1.545
  251WN      WN  260   0.879   2.106   1.635
  252WN      WN  261   1.192   3.517   2.385
  253WN      WN  262   3.259   3.613   3.417
  254WN      WN  263   2.418   1.801   2.350
  255WN      WN  264   0.267   1.599   0.265
  256WN      WN  265   3.401   3.257   0.962
  257WN      WN  266   3.238   0.581   0.581
  258WN      WN  267   1.377   0.100   2.984
  259WN      WN  268   3.083   2.902   1.442
  260WN      WN  269   3.112   1.458   1.347
  261WN      WN  270   1.229   1.131   1.563
  262WN      WN  271   1.474   1.393   2.887
  263WN      WN  272   2.585   2.546   2.750
  264WN      WN  273   1.235   1.000   2.862
  265WN      WN  274   1.214   3.466   1.478
  266WN      WN  275   0.531   3.425   3.112
  267WN      WN  276   0.643   2.786   0.242
  268WN      WN  277   3.160   2.544   1.052
  269WN      WN  278   0.764   1.336   2.938
  270WN      WN  279   3.537   1.266   0.419
  271WN      WN  280   1.282   2.323   0.890
  272WN      WN  281   2.381   1.705   2.971
  273WN      WN  282   2.272   1.333   2.515
  274WN      WN  283   0.832   1.705   2.544
  275WN      WN  284   3.042   3.593   2.373
  276WN      WN  285   2.833   0.227   3.367
  277WN      WN  286   0.497   0.377   2.954
  278WN      WN  287   0.836   1.400   2.007
  279WN      WN  288   1.205   1.214   0.129
  280WN      WN  289   0.008   2.973   2.674
  281WN      WN  290   1.593   1.682   2.117
  282WN      WN  291   1.416   0.707   0.222
  283WN      WN  292   0.551   1.523   1.003
  284WN      WN  293   0.322   3.375   2.440
  285WN      WN  294   3.117   1.601   0.548
  286WN      WN  295   3.212   0.517   3.234
  287WN      WN  296   2.648   2.726   1.197
  288WN      WN  297   0.246   1.650   3.374
  289WN      WN  298   3.212   0.114   0.670
  290WN      WN  299   2.732   2.589   0.681
  291WN      WN  300   1.634   1.647   0.766
  292WN      WN  301   2.821   0.451   0.289
  293WN      WN  302   2.886   1.058   2.475
  294WN      WN  303   0.595   1.651   1.682
  295WN      WN  304   0.889   2.590   1.331
  296WN      WN  305   2.652   1.210   1.296
  297WN      WN  306   1.675   0.589   1.992
  298WN      WN  307   3.637   2.500   2.503
  299WN      WN  308   3.555   0.487   2.064
  300WN      WN  309   0.094   3.317   1.440
  301WN      WN  310   0.603   2.504   0.976
  302WN      WN  311   0.518   0.121   3.529
  303WN      WN  312   1.637   2.974   3.631
  304WN      WN  313   3.392   1.942   1.421
  305WN      WN  314   2.746   2.119   0.301
  306WN      WN  315   2.041   3.640   2.513
  307WN      WN  316   2.898   2.362   3.550
  308WN      WN  317   1.713   0.072   0.830
  309WN      WN  318   2.426   0.941   1.689
  310WN      WN  319   0.112   2.528   2.021
  311WN      WN  320   1.365   0.490   0.662
  312WN      WN  321   1.169   1.974   3.511
  313WN      WN  322   2.163   0.955   1.225
  314WN      WN  323   2.368   2.365   2.347
  315WN      WN  324   0.522   2.970   2.782
  316WN      WN  325   1.113   2.953   3.505
  317WN      WN  326   0.964   0.750   0.519
  318WN      WN  327   2.481   0.892   0.844
  319WN      WN  328   2.439   3.000   3.081
  320WN      WN  329   1.124   1.592   1.680
  321WN      WN  330   0.779   3.290   2.545
  322WN      WN  331   3.524   3.407   0.146
  323WN      WN  332   0.387   2.079   3.142
  324WN      WN  333   2.382   2.341   1.830
  325WN      WN  334   0.818   1.990   1.072
  326WN      WN  335   1.189   2.997   2.467
  327WN      WN  336   1.567   0.416   1.508
  328WN      WN  337   0.178   2.400   0.438
  329WN      WN  338   1.697   1.351   0.308
  330WN      WN  339   0.343   1.900   1.327
  331WN      WN  340   1.633   0.542   2.791
  332WN      WN  341   3.305   0.251   0.218
  333WN      WN  342   3.398   1.997   3.317
  334WN      WN  343   2.052   3.254   3.469
  335WN      WN  344   3.610   2.348   2.991
  336WN      WN  345   3.018   3.146   3.602
  337WN      WN  346   0.757   3.602   2.080
  338WN      WN  347   3.616   2.224   0.954
  339WN      WN  348   2.146   1.491   1.467
  340WN      WN  349   1.913   0.103   1.357
  341WN      WN  350   0.972   3.087   1.194
  342WN      WN  351   1.471   0.828   2.419
  343WN      WN  352   1.171   0.197   1.888
  344WN      WN  353   0.234   3.019   0.436
  345WN      WN  354   2.050   2.383   1.154
  346WN      WN  355   0.925   3.178   3.033
  347WN      WN  356   0.402   2.001   0.729
  348WN      WN  357   0.287   0.544   1.728
  349WN      WN  358   1.835   2.509   1.785
  350WN      WN  359   0.087   0.363   0.805
  351WN      WN  360   2.751   1.569   2.732
  352WN      WN  361   2.628   0.955   0.304
  353WN      WN  362   3.145   2.627   1.952
  354WN      WN  363   1.806   3.111   1.783
  355WN      WN  364   1.218   3.215   0.694
  356WN      WN  365   2.500   0.118   0.124
  357WN      WN  366   0.300   3.378   1.865
  358WN      WN  367   2.497   1.136   3.500
  359WN      WN  368   0.480   0.666   3.499
  360WN      WN  369   0.211   1.266   0.832
  361WN      WN  370   0.902   1.255   0.557
  362WN      WN  371   2.665   1.582   3.374
  363WN      WN  372   1.008   1.863   2.083
  364WN      WN  373   2.482   0.149   1.203
  365WN      WN  374   1.613   3.580   1.706
  366WN      WN  375   2.827   3.042   2.643
  367WN      WN  376   2.411   3.191   1.754
  368WN      WN  377   2.430   2.171   1.348
  369WN      WN  378   1.892   0.396   0.419
  370WN      WN  379   3.573   0.024   1.141
  371WN      WN  380   1.261   1.659   0.304
  372WN      WN  381   3.427   0.996   1.294
  373WN      WN  382   2.119   2.166   0.171
  374WN      WN  383   3.055   2.366   2.919
  375WN      WN  384   2.709   3.067   0.386
  376WN      WN  385   1.324   0.742   3.292
  377WN      WN  386   1.144   1.326   2.533
  378WN      WN  387   3.236   2.821   2.810
  379WN      WN  388   2.336   0.771   3.187
  380WN      WN  389   1.940   1.719   2.690
  381WN      WN  390   0.297   2.477   1.347
  382WN      WN  391   0.444   1.774   2.237
  383WN      WN  392   2.761   2.060   2.587
  384WN      WN  393   2.533   3.440   3.398
  385WN      WN  394   2.429   1.179   2.951
  386WN      WN  395   2.706   3.233   1.356
  387WN      WN  396   1.708   2.953   2.679
  388WN      WN  397   1.193   3.308   1.948
  389WN      WN  398   2.998   2.479   2.367
  390WN      WN  399   2.048   2.551   3.504
  391WN      WN  400   0.653   2.504   1.843
  392WN      WN  401   2.999   2.263   1.488
  393WN      WN  402   2.640   3.329   2.239
  394WN      WN  403   0.618   3.058   2.109
  395WN      WN  404   1.639   1.110   3.319
  396WN      WN  405   2.090   3.276   0.830
  397WN      WN  406   1.398   2.531   3.468
  398WN      WN  407   1.524   2.769   0.845
  399WN      WN  408   0.745   1.509   0.104
  400WN      WN  409   3.165   2.218   4.296
  401WN      WN  410   1.213   3.294   3.849
  402WN      WN  411   1.802   2.109   4.430
  403WN      WN  412   2.231   1.301   4.007
  404WN      WN  413   1.788   2.536   3.976
  405WN      WN  414   0.484   0.375   4.811
  406WN      WN  415   3.172   0.769   3.762
  407WN      WN  416   3.378   2.743   4.259
  408WN      WN  417   0.507   3.529   4.013
  409WN      WN  418   0.900   3.575   4.689
  410WN      WN  419   2.725   1.769   4.849
  411WN      WN  420   2.691   1.457   3.876
  412WN      WN  421   3.176   1.809   4.631
  413WN      WN  422   2.078   0.467   4.647
  414WN      WN  423   0.735   3.161   4.330
  415WN      WN  424   1.691   3.234   4.188
  416WN      WN  425   3.083   1.260   3.652
  417WN      WN  426   1.270   1.950   4.915
  418WN      WN  427   0.740   1.989   3.773
  419WN      WN  428   0.395   1.022   3.952
  420WN      WN  429   0.457   2.978   4.746
  421WN      WN  430   1.846   0.962   4.392
  422WN      WN  431   0.012   1.712   4.586
  423WN      WN  432   2.327   1.391   4.537
  424WN      WN  433   2.204   1.881   4.641
  425WN      WN  434   2.193   0.775   4.098
  426WN      WN  435   1.383   1.082   4.255
  427WN      WN  436   3.004   0.850   4.600
  428WN      WN  437   3.371   1.332   4.545
  429WN      WN  438   1.040   0.085   4.251
  430WN      WN  439   3.511   2.868   3.731
  431WN      WN  440   2.335   0.658   3.663
  432WN      WN  441   2.046   2.735   4.390
  433WN      WN  442   2.145   3.302   4.982
  434WN      WN  443   3.319   2.305   3.826
  435WN      WN  444   1.754   1.788   4.887
  436WN      WN  445   2.824   1.318   4.505
  437WN      WN  446   3.111   1.051   4.147
  438WN      WN  447   2.920   3.091   4.536
  439WN      WN  448   2.650   1.773   4.310
  440WN      WN  449   3.303   0.425   4.777
  441WN      WN  450   1.489   3.301   4.742
  442WN      WN  451   0.604   0.481   4.000
  443WN      WN  452   0.736   3.255   3.658
  444WN      WN  453   1.110   1.721   4.409
  445WN      WN  454   1.594   0.708   4.712
  446WN      WN  455   0.942   0.498   4.664
  447WN      WN  456   0.947   0.726   3.689
  448WN      WN  457   1.720   1.862   3.996
  449WN      WN  458   0.988   0.177   3.766
  450WN      WN  459   1.726   1.258   4.817
  451WN      WN  460   0.423   3.482   4.707
  452WN      WN  461   0.790   2.297   4.191
  453WN      WN  462   2.425   2.529   3.877
  454WN      WN  463   3.576   0.828   4.473
  455WN      WN  464   0.054   3.489   4.268
  456WN      WN  465   1.316   2.782   3.923
  457WN      WN  466   3.221   3.164   4.109
  458WN      WN  467   2.196   1.817   4.123
  459WN      WN  468   1.039   1.008   4.640
  460WN      WN  469   1.871   0.918   3.692
  461WN      WN  470   2.808   0.389   4.487
  462WN      WN  471   0.138   0.237   3.935
  463WN      WN  472   0.965   2.424   3.715
  464WN      WN  473   0.206   2.665   4.483
  465WN      WN  474   1.318   0.205   4.748
  466WN      WN  475   2.377   0.282   4.253
  467WN      WN  476   0.481   0.783   4.420
  468WN      WN  477   3.448   1.674   3.721
  469WN      WN  478   0.002   0.694   3.958
  470WN      WN  479   2.013   3.560   3.994
  471WN      WN  480   0.159   2.067   3.691
  472WN      WN  481   3.560   1.919   4.181
  473WN      WN  482   2.423   2.251   4.280
  474WN      WN  483   2.897   3.551   3.975
  475WN      WN  484   1.491   0.117   3.934
  476WN      WN  485   3.030   2.716   3.877
  477WN      WN  486   2.570   3.453   4.391
  478WN      WN  487   1.031   2.736   4.376
  479WN      WN  488   2.786   2.234   4.640
  480WN      WN  489   1.883   2.922   4.828
  481WN      WN  490   2.157   2.966   3.943
  482WN      WN  491   1.299   2.211   4.025
  483WN      WN  492   3.011   3.593   4.744
  484WN      WN  493   0.267   1.599   3.909
  485WN      WN  494   3.401   3.257   4.606
  486WN      WN  495   3.238   0.581   4.225
  487WN      WN  496   0.643   2.786   3.886
  488WN      WN  497   3.160   2.544   4.696
  489WN      WN  498   3.537   1.266   4.063
  490WN      WN  499   1.282   2.323   4.534
  491WN      WN  500   1.205   1.214   3.773
  492WN      WN  501   1.416   0.707   3.866
  493WN      WN  502   0.551   1.523   4.647
  494WN      WN  503   3.117   1.601   4.192
  495WN      WN  504   2.648   2.726   4.841
  496WN      WN  505   3.212   0.114   4.314
  497WN      WN  506   2.732   2.589   4.325
  498WN      WN  507   1.634   1.647   4.410
  499WN      WN  508   2.821   0.451   3.933
  500WN      WN  509   0.094   3.317   5.084
  501WN      WN  510   0.603   2.504   4.620
  502WN      WN  511   2.746   2.119   3.945
  503WN      WN  512   1.713   0.072   4.474
  504WN      WN  513   1.365   0.490   4.306
  505WN      WN  514   0.964   0.750   4.163
  506WN      WN  515   2.481   0.892   4.488
  507WN      WN  516   3.524   3.407   3.790
  508WN      WN  517   0.818   1.990   4.716
  509WN      WN  518   0.178   2.400   4.082
  510WN      WN  519   1.697   1.351   3.952
  511WN      WN  520   3.305   0.251   3.862
  512WN      WN  521   3.616   2.224   4.598
  513WN      WN  522   1.913   0.103   5.001
  514WN      WN  523   0.234   3.019   4.080
  515WN      WN  524   2.050   2.383   4.798
  516WN      WN  525   0.402   2.001   4.373
  517WN      WN  526   0.087   0.363   4.449
  518WN      WN  527   2.628   0.955   3.948
  519WN      WN  528   1.218   3.215   4.338
  520WN      WN  529   2.500   0.118   3.768
  521WN      WN  530   0.211   1.266   4.476
  522WN      WN  531   0.902   1.255   4.201
  523WN      WN  532   1.892   0.396   4.063
  524WN      WN  533   3.573   0.024   4.785
  525WN      WN  534   1.261   1.659   3.948
  526WN      WN  535   2.119   2.166   3.815
  527WN      WN  536   2.709   3.067   4.030
  528WN      WN  537   0.297   2.477   4.991
  529WN      WN  538   2.090   3.276   4.474
  530WN      WN  539   1.524   2.769   4.489
  531WN      WN  540   0.745   1.509   3.748
  532WN      WN  541   0.126   4.406   3.104
  533WN      WN  542   0.888   3.686   2.906
  534WN      WN  543   2.582   4.074   1.793
  535WN      WN  544   2.801   4.379   3.454
  536WN      WN  545   0.167   4.171   2.579
  537WN      WN  546   1.113   4.854   3.262
  538WN      WN  547   0.071   4.902   3.570
  539WN      WN  548   0.484   4.019   1.167
  540WN      WN  549   2.887   4.460   2.023
  541WN      WN  550   3.172   4.413   0.118
  542WN      WN  551   0.697   3.973   2.471
  543WN      WN  552   1.705   4.575   1.571
  544WN      WN  553   2.078   4.111   1.003
  545WN      WN  554   0.106   4.304   1.285
  546WN      WN  555   2.892   4.911   1.759
  547WN      WN  556   3.083   4.904   0.008
  548WN      WN  557   1.292   3.999   2.364
  549WN      WN  558   3.521   3.761   1.661
  550WN      WN  559   0.395   4.666   0.308
  551WN      WN  560   1.846   4.606   0.748
  552WN      WN  561   2.906   4.857   3.118
  553WN      WN  562   0.422   3.738   1.552
  554WN      WN  563   2.190   4.085   2.113
  555WN      WN  564   1.838   4.270   3.276
  556WN      WN  565   2.193   4.419   0.454
  557WN      WN  566   2.343   3.893   3.247
  558WN      WN  567   2.792   4.361   2.965
  559WN      WN  568   2.592   4.299   1.235
  560WN      WN  569   1.383   4.726   0.611
  561WN      WN  570   0.952   4.010   3.275
  562WN      WN  571   3.004   4.494   0.956
  563WN      WN  572   1.040   3.729   0.607
  564WN      WN  573   3.361   4.263   1.642
  565WN      WN  574   2.335   4.302   0.019
  566WN      WN  575   3.508   3.828   2.489
  567WN      WN  576   2.120   3.650   1.795
  568WN      WN  577   0.732   4.553   1.858
  569WN      WN  578   3.339   4.543   2.210
  570WN      WN  579   3.606   3.943   2.984
  571WN      WN  580   1.972   4.664   2.023
  572WN      WN  581   2.824   4.962   0.861
  573WN      WN  582   3.111   4.695   0.503
  574WN      WN  583   0.339   4.430   2.143
  575WN      WN  584   2.399   4.407   2.606
  576WN      WN  585   3.303   4.069   1.133
  577WN      WN  586   0.077   4.709   2.472
  578WN      WN  587   2.937   4.504   1.490
  579WN      WN  588   3.348   4.655   3.267
  580WN      WN  589   0.604   4.125   0.356
  581WN      WN  590   1.708   3.779   2.166
  582WN      WN  591   1.594   4.352   1.068
  583WN      WN  592   2.950   3.949   1.496
  584WN      WN  593   0.942   4.142   1.020
  585WN      WN  594   0.947   4.370   0.045
  586WN      WN  595   2.596   3.845   2.309
  587WN      WN  596   0.988   3.821   0.122
  588WN      WN  597   2.696   3.878   2.872
  589WN      WN  598   1.989   3.842   3.596
  590WN      WN  599   1.211   4.458   1.989
  591WN      WN  600   0.637   4.414   1.387
  592WN      WN  601   2.097   4.194   1.561
  593WN      WN  602   3.576   4.472   0.829
  594WN      WN  603   1.953   4.403   2.430
  595WN      WN  604   1.039   4.652   0.996
  596WN      WN  605   1.871   4.562   0.048
  597WN      WN  606   2.808   4.033   0.843
  598WN      WN  607   0.138   3.881   0.291
  599WN      WN  608   1.414   3.939   3.467
  600WN      WN  609   2.123   4.081   2.823
  601WN      WN  610   1.318   3.849   1.104
  602WN      WN  611   2.377   3.926   0.609
  603WN      WN  612   0.322   3.858   2.186
  604WN      WN  613   3.059   3.929   1.962
  605WN      WN  614   0.481   4.427   0.776
  606WN      WN  615   3.052   4.115   2.392
  607WN      WN  616   0.740   4.076   1.896
  608WN      WN  617   1.854   4.648   2.836
  609WN      WN  618   0.002   4.338   0.314
  610WN      WN  619   3.174   3.753   2.860
  611WN      WN  620   3.610   4.074   3.465
  612WN      WN  621   1.491   3.761   0.290
  613WN      WN  622   0.799   4.453   3.119
  614WN      WN  623   3.359   4.438   2.779
  615WN      WN  624   1.059   4.132   2.781
  616WN      WN  625   0.554   4.504   2.720
  617WN      WN  626   1.855   3.759   3.084
  618WN      WN  627   0.910   4.494   2.379
  619WN      WN  628   0.880   3.842   1.489
  620WN      WN  629   2.501   4.684   2.181
  621WN      WN  630   1.110   4.257   1.545
  622WN      WN  631   3.238   4.225   0.581
  623WN      WN  632   1.377   3.744   2.984
  624WN      WN  633   1.229   4.775   1.563
  625WN      WN  634   1.235   4.644   2.862
  626WN      WN  635   3.537   4.910   0.419
  627WN      WN  636   2.272   4.977   2.515
  628WN      WN  637   2.833   3.871   3.367
  629WN      WN  638   0.497   4.021   2.954
  630WN      WN  639   1.416   4.351   0.222
  631WN      WN  640   3.212   4.161   3.234
  632WN      WN  641   3.212   3.758   0.670
  633WN      WN  642   2.821   4.095   0.289
  634WN      WN  643   2.886   4.702   2.475
  635WN      WN  644   1.675   4.233   1.992
  636WN      WN  645   3.555   4.131   2.064
  637WN      WN  646   0.518   3.765   3.529
  638WN      WN  647   1.713   3.716   0.830
  639WN      WN  648   2.426   4.585   1.689
  640WN      WN  649   1.365   4.134   0.662
  641WN      WN  650   2.163   4.599   1.225
  642WN      WN  651   0.964   4.394   0.519
  643WN      WN  652   2.481   4.536   0.844
  644WN      WN  653   1.567   4.060   1.508
  645WN      WN  654   1.633   4.186   2.791
  646WN      WN  655   3.305   3.895   0.218
  647WN      WN  656   1.913   3.747   1.357
  648WN      WN  657   1.471   4.472   2.419
  649WN      WN  658   1.171   3.841   1.888
  650WN      WN  659   0.287   4.188   1.728
  651WN      WN  660   0.087   4.007   0.805
  652WN      WN  661   2.628   4.599   0.304
  653WN      WN  662   2.500   3.762   0.124
  654WN      WN  663   2.497   4.780   3.500
  655WN      WN  664   0.480   4.310   3.499
  656WN      WN  665   0.211   4.910   0.832
  657WN      WN  666   2.482   3.793   1.203
  658WN      WN  667   1.892   4.040   0.419
  659WN      WN  668   3.573   3.668   1.141
  660WN      WN  669   3.427   4.640   1.294
  661WN      WN  670   1.324   4.386   3.292
  662WN      WN  671   1.144   4.970   2.533
  663WN      WN  672   2.336   4.415   3.187
  664WN      WN  673   0.180   4.886   2.964
  665WN      WN  674   2.429   4.823   2.951
  666WN      WN  675   1.639   4.754   3.319
  667WN      WN  676   0.484   4.019   4.811
  668WN      WN  677   3.172   4.413   3.762
  669WN      WN  678   2.078   4.111   4.647
  670WN      WN  679   3.083   4.904   3.652
  671WN      WN  680   0.395   4.666   3.952
  672WN      WN  681   1.846   4.606   4.392
  673WN      WN  682   2.193   4.419   4.098
  674WN      WN  683   1.383   4.726   4.255
  675WN      WN  684   3.004   4.494   4.600
  676WN      WN  685   1.040   3.729   4.251
  677WN      WN  686   2.335   4.302   3.663
  678WN      WN  687   2.824   4.962   4.505
  679WN      WN  688   3.111   4.695   4.147
  680WN      WN  689   3.303   4.069   4.777
  681WN      WN  690   0.604   4.125   4.000
  682WN      WN  691   1.594   4.352   4.712
  683WN      WN  692   0.942   4.142   4.664
  684WN      WN  693   0.947   4.370   3.689
  685WN      WN  694   0.988   3.821   3.766
  686WN      WN  695   3.576   4.472   4.473
  687WN      WN  696   1.039   4.652   4.640
  688WN      WN  697   1.871   4.562   3.692
  689WN      WN  698   2.808   4.033   4.487
  690WN      WN  699   0.138   3.881   3.935
  691WN      WN  700   1.318   3.849   4.748
  692WN      WN  701   2.377   3.926   4.253
  693WN      WN  702   0.481   4.427   4.420
  694WN      WN  703   0.002   4.338   3.958
  695WN      WN  704   1.491   3.761   3.934
  696WN      WN  705   3.238   4.225   4.225
  697WN      WN  706   1.229   4.775   5.207
  698WN      WN  707   3.537   4.910   4.063
  699WN      WN  708   1.416   4.351   3.866
  700WN      WN  709   3.212   3.758   4.314
  701WN      WN  710   2.821   4.095   3.933
  702WN      WN  711   1.713   3.716   4.474
  703WN      WN  712   1.365   4.134   4.306
  704WN      WN  713   0.964   4.394   4.163
  705WN      WN  714   2.481   4.536   4.488
  706WN      WN  715   3.305   3.895   3.862
  707WN      WN  716   0.087   4.007   4.449
  708WN      WN  717   2.628   4.599   3.948
  709WN      WN  718   2.500   3.762   3.768
  710WN      WN  719   0.211   4.910   4.476
  711WN      WN  720   1.892   4.040   4.063
  712WN      WN  721   3.573   3.668   4.785
  713WN      WN  722   3.728   3.595   3.359
  714WN      WN  723   4.104   2.488   2.882
  715WN      WN  724   4.455   1.294   1.352
  716WN      WN  725   3.770   0.762   3.104
  717WN      WN  726   4.532   0.042   2.906
  718WN      WN  727   3.811   0.527   2.579
  719WN      WN  728   3.910   3.146   3.600
  720WN      WN  729   3.864   1.319   2.025
  721WN      WN  730   4.334   2.218   2.248
  722WN      WN  731   3.693   1.746   1.819
  723WN      WN  732   4.729   1.718   3.011
  724WN      WN  733   4.616   2.945   1.710
  725WN      WN  734   3.715   1.258   3.570
  726WN      WN  735   4.128   0.375   1.167
  727WN      WN  736   4.655   2.633   2.166
  728WN      WN  737   4.151   3.529   0.369
  729WN      WN  738   4.544   3.575   1.045
  730WN      WN  739   4.341   0.329   2.471
  731WN      WN  740   4.379   3.161   0.686
  732WN      WN  741   3.750   0.660   1.285
  733WN      WN  742   3.994   2.884   1.674
  734WN      WN  743   3.750   3.018   2.172
  735WN      WN  744   4.541   2.590   2.652
  736WN      WN  745   4.384   1.989   0.129
  737WN      WN  746   4.039   1.022   0.308
  738WN      WN  747   4.101   2.978   1.102
  739WN      WN  748   3.656   1.712   0.942
  740WN      WN  749   4.191   1.301   2.471
  741WN      WN  750   4.176   1.177   3.393
  742WN      WN  751   4.066   0.094   1.552
  743WN      WN  752   4.369   3.365   1.625
  744WN      WN  753   4.596   0.366   3.275
  745WN      WN  754   4.684   0.085   0.607
  746WN      WN  755   4.062   2.071   1.789
  747WN      WN  756   4.376   0.909   1.858
  748WN      WN  757   3.930   2.109   2.632
  749WN      WN  758   3.983   0.786   2.143
  750WN      WN  759   3.721   1.065   2.472
  751WN      WN  760   4.248   0.481   0.356
  752WN      WN  761   4.380   3.255   0.014
  753WN      WN  762   4.586   0.498   1.020
  754WN      WN  763   4.591   0.726   0.045
  755WN      WN  764   3.660   2.044   2.194
  756WN      WN  765   4.632   0.177   0.122
  757WN      WN  766   4.928   2.246   2.981
  758WN      WN  767   4.281   0.770   1.387
  759WN      WN  768   4.067   3.482   1.063
  760WN      WN  769   4.434   2.297   0.547
  761WN      WN  770   3.714   3.417   2.860
  762WN      WN  771   4.131   2.643   2.392
  763WN      WN  772   3.698   3.489   0.624
  764WN      WN  773   4.683   1.008   0.996
  765WN      WN  774   3.782   0.237   0.291
  766WN      WN  775   5.068   2.556   2.581
  767WN      WN  776   4.867   2.472   1.673
  768WN      WN  777   4.609   2.424   0.071
  769WN      WN  778   3.850   2.665   0.839
  770WN      WN  779   4.354   1.735   3.281
  771WN      WN  780   3.966   0.214   2.186
  772WN      WN  781   4.014   1.177   1.556
  773WN      WN  782   4.125   0.783   0.776
  774WN      WN  783   4.384   0.432   1.896
  775WN      WN  784   3.646   0.694   0.314
  776WN      WN  785   4.432   2.083   2.875
  777WN      WN  786   3.803   2.067   0.047
  778WN      WN  787   4.538   2.478   3.173
  779WN      WN  788   4.059   1.645   2.804
  780WN      WN  789   5.050   1.750   2.598
  781WN      WN  790   4.048   2.508   3.513
  782WN      WN  791   4.443   0.809   3.119
  783WN      WN  792   4.703   0.488   2.781
  784WN      WN  793   4.675   2.736   0.732
  785WN      WN  794   4.198   0.860   2.720
  786WN      WN  795   3.811   2.858   3.141
  787WN      WN  796   4.554   0.850   2.379
  788WN      WN  797   4.524   0.198   1.489
  789WN      WN  798   4.268   2.911   3.303
  790WN      WN  799   4.754   0.613   1.545
  791WN      WN  800   4.523   2.106   1.635
  792WN      WN  801   4.836   3.517   2.385
  793WN      WN  802   3.911   1.599   0.265
  794WN      WN  803   4.873   1.131   1.563
  795WN      WN  804   4.175   3.425   3.112
  796WN      WN  805   4.287   2.786   0.242
  797WN      WN  806   4.926   2.323   0.890
  798WN      WN  807   4.476   1.705   2.544
  799WN      WN  808   4.141   0.377   2.954
  800WN      WN  809   4.480   1.400   2.007
  801WN      WN  810   4.849   1.214   0.129
  802WN      WN  811   3.652   2.973   2.674
  803WN      WN  812   4.195   1.523   1.003
  804WN      WN  813   3.966   3.375   2.440
  805WN      WN  814   3.890   1.650   3.374
  806WN      WN  815   4.239   1.651   1.682
  807WN      WN  816   4.533   2.590   1.331
  808WN      WN  817   3.738   3.317   1.440
  809WN      WN  818   4.247   2.504   0.976
  810WN      WN  819   4.162   0.121   3.529
  811WN      WN  820   3.756   2.528   2.021
  812WN      WN  821   4.166   2.970   2.782
  813WN      WN  822   4.757   2.953   3.505
  814WN      WN  823   4.608   0.750   0.519
  815WN      WN  824   4.423   3.290   2.545
  816WN      WN  825   4.031   2.079   3.142
  817WN      WN  826   4.462   1.990   1.072
  818WN      WN  827   3.822   2.400   0.438
  819WN      WN  828   3.987   1.900   1.327
  820WN      WN  829   4.401   3.602   2.080
  821WN      WN  830   4.616   3.087   1.194
  822WN      WN  831   4.815   0.197   1.888
  823WN      WN  832   3.878   3.019   0.436
  824WN      WN  833   4.569   3.178   3.033
  825WN      WN  834   4.046   2.001   0.729
  826WN      WN  835   3.931   0.544   1.728
  827WN      WN  836   3.731   0.363   0.805
  828WN      WN  837   3.944   3.378   1.865
  829WN      WN  838   4.124   0.666   3.499
  830WN      WN  839   3.855   1.266   0.832
  831WN      WN  840   4.546   1.255   0.557
  832WN      WN  841   4.652   1.863   2.083
  833WN      WN  842   3.824   1.242   2.964
  834WN      WN  843   3.941   2.477   1.347
  835WN      WN  844   4.088   1.774   2.237
  836WN      WN  845   4.837   3.308   1.948
  837WN      WN  846   4.297   2.504   1.843
  838WN      WN  847   4.262   3.058   2.109
  839WN      WN  848   4.389   1.509   0.104
  840WN      WN  849   4.857   3.294   3.849
  841WN      WN  850   4.128   0.375   4.811
  842WN      WN  851   4.151   3.529   4.013
  843WN      WN  852   4.544   3.575   4.689
  844WN      WN  853   4.379   3.161   4.330
  845WN      WN  854   4.384   1.989   3.773
  846WN      WN  855   4.039   1.022   3.952
  847WN      WN  856   4.101   2.978   4.746
  848WN      WN  857   3.656   1.712   4.586
  849WN      WN  858   4.684   0.085   4.251
  850WN      WN  859   4.248   0.481   4.000
  851WN      WN  860   4.380   3.255   3.658
  852WN      WN  861   4.586   0.498   4.664
  853WN      WN  862   4.591   0.726   3.689
  854WN      WN  863   4.632   0.177   3.766
  855WN      WN  864   4.067   3.482   4.707
  856WN      WN  865   4.434   2.297   4.191
  857WN      WN  866   3.698   3.489   4.268
  858WN      WN  867   4.683   1.008   4.640
  859WN      WN  868   3.782   0.237   3.935
  860WN      WN  869   4.609   2.424   3.715
  861WN      WN  870   3.850   2.665   4.483
  862WN      WN  871   4.125   0.783   4.420
  863WN      WN  872   3.646   0.694   3.958
  864WN      WN  873   3.803   2.067   3.691
  865WN      WN  874   4.675   2.736   4.376
  866WN      WN  875   3.911   1.599   3.909
  867WN      WN  876   4.287   2.786   3.886
  868WN      WN  877   4.926   2.323   4.534
  869WN      WN  878   4.195   1.523   4.647
  870WN      WN  879   4.247   2.504   4.620
  871WN      WN  880   4.608   0.750   4.163
  872WN      WN  881   4.768   1.592   5.324
  873WN      WN  882   4.462   1.990   4.716
  874WN      WN  883   3.822   2.400   4.082
  875WN      WN  884   3.878   3.019   4.080
  876WN      WN  885   4.046   2.001   4.373
  877WN      WN  886   3.731   0.363   4.449
  878WN      WN  887   3.855   1.266   4.476
  879WN      WN  888   4.546   1.255   4.201
  880WN      WN  889   3.941   2.477   4.991
  881WN      WN  890   4.389   1.509   3.748
  882WN      WN  891   4.940   5.090   1.188
  883WN      WN  892   3.770   4.406   3.104
  884WN      WN  893   4.532   3.686   2.906
  885WN      WN  894   3.811   4.171   2.579
  886WN      WN  895   4.757   4.854   3.262
  887WN      WN  896   3.715   4.902   3.570
  888WN      WN  897   4.128   4.019   1.167
  889WN      WN  898   4.341   3.973   2.471
  890WN      WN  899   3.750   4.304   1.285
  891WN      WN  900   4.039   4.666   0.308
  892WN      WN  901   4.066   3.738   1.552
  893WN      WN  902   4.596   4.010   3.275
  894WN      WN  903   4.684   3.729   0.607
  895WN      WN  904   4.376   4.553   1.858
  896WN      WN  905   3.983   4.430   2.143
  897WN      WN  906   3.721   4.709   2.472
  898WN      WN  907   4.248   4.125   0.356
  899WN      WN  908   4.586   4.142   1.020
  900WN      WN  909   4.591   4.370   0.045
  901WN      WN  910   4.632   3.821   0.122
  902WN      WN  911   4.855   4.458   1.989
  903WN      WN  912   4.281   4.414   1.387
  904WN      WN  913   4.683   4.652   0.996
  905WN      WN  914   3.782   3.881   0.291
  906WN      WN  915   3.966   3.858   2.186
  907WN      WN  916   4.125   4.427   0.776
  908WN      WN  917   4.384   4.076   1.896
  909WN      WN  918   3.646   4.338   0.314
  910WN      WN  919   4.443   4.453   3.119
  911WN      WN  920   4.703   4.132   2.781
  912WN      WN  921   4.198   4.504   2.720
  913WN      WN  922   4.554   4.494   2.379
  914WN      WN  923   4.524   3.842   1.489
  915WN      WN  924   4.754   4.257   1.545
  916WN      WN  925   4.873   4.775   1.563
  917WN      WN  926   4.141   4.021   2.954
  918WN      WN  927   4.162   3.765   3.529
  919WN      WN  928   4.608   4.394   0.519
  920WN      WN  929   4.815   3.841   1.888
  921WN      WN  930   3.931   4.188   1.728
  922WN      WN  931   3.731   4.007   0.805
  923WN      WN  932   4.124   4.310   3.499
  924WN      WN  933   3.855   4.910   0.832
  925WN      WN  934   3.824   4.886   2.964
  926WN      WN  935   4.940   5.090   4.832
  927WN      WN  936   4.128   4.019   4.811
  928WN      WN  937   4.039   4.666   3.952
  929WN      WN  938   4.684   3.729   4.251
  930WN      WN  939   4.248   4.125   4.000
  931WN      WN  940   4.586   4.142   4.664
  932WN      WN  941   4.591   4.370   3.689
  933WN      WN  942   4.632   3.821   3.766
  934WN      WN  943   4.683   4.652   4.640
  935WN      WN  944   3.782   3.881   3.935
  936WN      WN  945   4.125   4.427   4.420
  937WN      WN  946   3.646   4.338   3.958
  938WN      WN  947   4.873   4.775   5.207
  939WN      WN  948   4.608   4.394   4.163
  940WN      WN  949   3.731   4.007   4.449
  941WN      WN  950   3.855   4.910   4.476
   5.00000   5.00000   5.00000
