frame t= 0.000
  946
    1CIT    PA1    1   3.191   0.893   4.298
    1CIT    PA2    2   2.962   0.695   4.406
    1CIT    PA3    3   2.909   0.566   4.834
    2W        W    4   0.084   3.595   3.359
    3W        W    5   0.460   2.488   2.882
    4W        W    6   3.165   2.218   0.652
    5W        W    7   3.295   3.303   2.679
    6W        W    8   1.213   3.294   0.205
    7W        W    9   1.296   1.446   1.188
    8W        W   10   0.811   1.294   1.352
    9W        W   11   1.802   2.109   0.786
   10W        W   12   1.477   3.201   3.141
   11W        W   13   0.126   0.762   3.104
   12W        W   14   0.888   0.042   2.906
   13W        W   15   2.582   0.430   1.793
   14W        W   16   2.231   1.301   0.363
   15W        W   17   2.801   0.735   3.454
   16W        W   18   0.167   0.527   2.579
   17W        W   19   0.266   3.146   3.600
   18W        W   20   1.788   2.536   0.332
   19W        W   21   0.220   1.319   2.025
   20W        W   22   1.113   1.210   3.262
   21W        W   23   3.572   1.069   1.761
   22W        W   24   3.336   2.112   2.620
   23W        W   25   1.644   1.445   1.647
   24W        W   26   2.190   2.784   2.016
   25W        W   27   0.690   2.218   2.248
   26W        W   28   0.049   1.746   1.819
   27W        W   29   1.085   1.718   3.011
   28W        W   30   3.356   1.501   3.265
   29W        W   31   0.972   2.945   1.710
   30W        W   32   2.093   2.634   2.844
   31W        W   33   1.313   1.274   2.069
   32W        W   34   1.605   2.058   1.712
   33W        W   35   2.602   2.831   3.560
   34W        W   36   1.681   2.151   3.570
   35W        W   37   1.662   1.867   3.048
   36W        W   38   0.071   1.258   3.570
   37W        W   39   2.903   2.793   3.169
   38W        W   40   0.484   0.375   1.167
   39W        W   41   1.011   2.633   2.166
   40W        W   42   3.474   2.416   1.456
   41W        W   43   2.887   0.816   2.023
   42W        W   44   3.172   0.769   0.118
   43W        W   45   3.637   1.570   2.424
   44W        W   46   1.604   3.277   2.177
   45W        W   47   3.378   2.743   0.615
   46W        W   48   0.507   3.529   0.369
   47W        W   49   0.900   3.575   1.045
   48W        W   50   0.697   0.329   2.471
   49W        W   51   3.320   1.347   2.746
   50W        W   52   2.725   1.769   1.205
   51W        W   53   2.691   1.457   0.232
   52W        W   54   1.899   2.601   2.372
   53W        W   55   1.705   0.931   1.571
   54W        W   56   2.305   3.018   2.565
   55W        W   57   3.176   1.809   0.987
   56W        W   58   2.078   0.467   1.003
   57W        W   59   0.735   3.161   0.686
   58W        W   60   0.106   0.660   1.285
   59W        W   61   2.892   1.267   1.759
   60W        W   62   0.350   2.884   1.674
   61W        W   63   1.691   3.234   0.544
   62W        W   64   3.083   1.260   0.008
   63W        W   65   0.106   3.018   2.172
   64W        W   66   0.897   2.590   2.652
   65W        W   67   1.270   1.950   1.271
   66W        W   68   1.292   0.355   2.364
   67W        W   69   3.521   0.117   1.661
   68W        W   70   0.740   1.989   0.129
   69W        W   71   0.395   1.022   0.308
   70W        W   72   0.457   2.978   1.102
   71W        W   73   1.588   2.461   1.350
   72W        W   74   2.920   3.320   3.064
   73W        W   75   1.846   0.962   0.748
   74W        W   76   3.229   3.360   1.520
   75W        W   77   2.906   1.213   3.118
   76W        W   78   3.619   2.869   1.252
   77W        W   79   2.246   2.161   2.736
   78W        W   80   0.012   1.712   0.942
   79W        W   81   1.123   2.127   2.515
   80W        W   82   2.327   1.391   0.893
   81W        W   83   2.204   1.881   0.997
   82W        W   84   0.547   1.301   2.471
   83W        W   85   0.532   1.177   3.393
   84W        W   86   0.422   0.094   1.552
   85W        W   87   2.190   0.441   2.113
   86W        W   88   1.838   0.626   3.276
   87W        W   89   2.193   0.775   0.454
   88W        W   90   3.376   3.168   3.208
   89W        W   91   2.343   0.249   3.247
   90W        W   92   3.362   2.550   3.369
   91W        W   93   2.792   0.717   2.965
   92W        W   94   2.592   0.655   1.235
   93W        W   95   2.985   1.789   3.639
   94W        W   96   0.725   3.365   1.625
   95W        W   97   1.383   1.082   0.611
   96W        W   98   0.952   0.366   3.275
   97W        W   99   3.004   0.850   0.956
   98W        W  100   3.371   1.332   0.901
   99W        W  101   1.114   3.549   3.372
  100W        W  102   1.040   0.085   0.607
  101W        W  103   3.361   0.619   1.642
  102W        W  104   3.511   2.868   0.087
  103W        W  105   0.418   2.071   1.789
  104W        W  106   2.335   0.658   0.019
  105W        W  107   3.469   2.990   1.739
  106W        W  108   3.508   0.184   2.489
  107W        W  109   1.953   1.396   3.043
  108W        W  110   2.046   2.735   0.746
  109W        W  111   2.446   2.029   3.486
  110W        W  112   2.120   0.006   1.795
  111W        W  113   0.732   0.909   1.858
  112W        W  114   0.286   2.109   2.632
  113W        W  115   2.145   3.302   1.338
  114W        W  116   3.339   0.899   2.210
  115W        W  117   1.976   3.246   2.977
  116W        W  118   3.319   2.305   0.182
  117W        W  119   1.754   1.788   1.243
  118W        W  120   3.606   0.299   2.984
  119W        W  121   1.755   2.134   2.578
  120W        W  122   1.972   1.020   2.023
  121W        W  123   2.824   1.318   0.861
  122W        W  124   3.111   1.051   0.503
  123W        W  125   2.920   3.091   0.892
  124W        W  126   2.754   2.694   1.688
  125W        W  127   2.650   1.773   0.666
  126W        W  128   2.083   1.983   1.652
  127W        W  129   2.964   1.771   1.719
  128W        W  130   0.339   0.786   2.143
  129W        W  131   3.117   1.838   2.970
  130W        W  132   3.468   3.456   2.116
  131W        W  133   1.398   2.900   1.518
  132W        W  134   2.405   3.433   2.842
  133W        W  135   2.399   0.763   2.606
  134W        W  136   1.606   3.471   2.667
  135W        W  137   3.303   0.425   1.133
  136W        W  138   3.094   1.744   2.434
  137W        W  139   0.077   1.065   2.472
  138W        W  140   2.937   0.860   1.490
  139W        W  141   3.348   1.011   3.267
  140W        W  142   2.233   2.710   1.485
  141W        W  143   1.489   3.301   1.098
  142W        W  144   0.604   0.481   0.356
  143W        W  145   1.708   0.135   2.166
  144W        W  146   0.736   3.255   0.014
  145W        W  147   1.110   1.721   0.765
  146W        W  148   1.764   2.350   3.078
  147W        W  149   1.594   0.708   1.068
  148W        W  150   2.950   0.305   1.496
  149W        W  151   2.670   3.587   1.824
  150W        W  152   2.082   3.235   2.164
  151W        W  153   1.478   2.272   2.125
  152W        W  154   3.248   2.995   2.251
  153W        W  155   0.942   0.498   1.020
  154W        W  156   1.464   2.795   1.980
  155W        W  157   0.947   0.726   0.045
  156W        W  158   1.748   1.335   2.439
  157W        W  159   2.596   0.201   2.309
  158W        W  160   0.016   2.044   2.194
  159W        W  161   1.720   1.862   0.352
  160W        W  162   0.988   0.177   0.122
  161W        W  163   1.726   1.258   1.173
  162W        W  164   2.696   0.234   2.872
  163W        W  165   1.284   2.246   2.981
  164W        W  166   2.088   2.028   3.198
  165W        W  167   2.705   2.058   3.091
  166W        W  168   1.989   0.198   3.596
  167W        W  169   1.211   0.814   1.989
  168W        W  170   0.637   0.770   1.387
  169W        W  171   0.423   3.482   1.063
  170W        W  172   1.755   2.812   3.188
  171W        W  173   0.790   2.297   0.547
  172W        W  174   2.470   1.682   1.768
  173W        W  175   2.750   1.481   2.167
  174W        W  176   1.955   2.155   2.101
  175W        W  177   2.425   2.529   0.233
  176W        W  178   2.097   0.550   1.561
  177W        W  179   3.576   0.828   0.829
  178W        W  180   0.070   3.417   2.860
  179W        W  181   0.487   2.643   2.392
  180W        W  182   0.054   3.489   0.624
  181W        W  183   1.953   0.759   2.430
  182W        W  184   1.316   2.782   0.279
  183W        W  185   3.221   3.164   0.465
  184W        W  186   2.196   1.817   0.479
  185W        W  187   1.039   1.008   0.996
  186W        W  188   1.871   0.918   0.048
  187W        W  189   2.455   2.483   3.226
  188W        W  190   2.808   0.389   0.843
  189W        W  191   0.138   0.237   0.291
  190W        W  192   1.424   2.556   2.581
  191W        W  193   1.223   2.472   1.673
  192W        W  194   0.965   2.424   0.071
  193W        W  195   0.206   2.665   0.839
  194W        W  196   0.710   1.735   3.281
  195W        W  197   1.414   0.295   3.467
  196W        W  198   2.123   0.437   2.823
  197W        W  199   1.318   0.205   1.104
  198W        W  200   2.377   0.282   0.609
  199W        W  201   0.322   0.214   2.186
  200W        W  202   0.370   1.177   1.556
  201W        W  203   3.059   0.285   1.962
  202W        W  204   0.481   0.783   0.776
  203W        W  205   3.052   0.471   2.392
  204W        W  206   3.448   1.674   0.077
  205W        W  207   0.740   0.432   1.896
  206W        W  208   1.854   1.004   2.836
  207W        W  209   0.002   0.694   0.314
  208W        W  210   0.788   2.083   2.875
  209W        W  211   2.146   1.481   2.054
  210W        W  212   2.013   3.560   0.350
  211W        W  213   0.159   2.067   0.047
  212W        W  214   0.894   2.478   3.173
  213W        W  215   0.415   1.645   2.804
  214W        W  216   1.406   1.750   2.598
  215W        W  217   3.174   0.109   2.860
  216W        W  218   3.572   1.719   2.851
  217W        W  219   3.560   1.919   0.537
  218W        W  220   2.423   2.251   0.636
  219W        W  221   2.897   3.551   0.331
  220W        W  222   2.074   1.541   3.473
  221W        W  223   0.404   2.508   3.513
  222W        W  224   3.610   0.430   3.465
  223W        W  225   3.328   1.358   2.086
  224W        W  226   1.636   3.488   3.563
  225W        W  227   1.491   0.117   0.290
  226W        W  228   3.030   2.716   0.233
  227W        W  229   0.799   0.809   3.119
  228W        W  230   1.233   2.803   2.981
  229W        W  231   3.359   0.794   2.779
  230W        W  232   2.570   3.453   0.747
  231W        W  233   2.809   2.072   2.114
  232W        W  234   1.059   0.488   2.781
  233W        W  235   1.528   1.557   3.538
  234W        W  236   1.031   2.736   0.732
  235W        W  237   2.786   2.234   0.996
  236W        W  238   0.554   0.860   2.720
  237W        W  239   1.883   2.922   1.184
  238W        W  240   3.633   1.482   1.365
  239W        W  241   1.855   0.115   3.084
  240W        W  242   2.635   2.820   2.163
  241W        W  243   2.938   3.164   1.871
  242W        W  244   2.157   2.966   0.299
  243W        W  245   0.167   2.858   3.141
  244W        W  246   0.910   0.850   2.379
  245W        W  247   0.880   0.198   1.489
  246W        W  248   2.501   1.040   2.181
  247W        W  249   1.299   2.211   0.381
  248W        W  250   3.297   2.153   1.880
  249W        W  251   0.624   2.911   3.303
  250W        W  252   3.011   3.593   1.100
  251W        W  253   1.110   0.613   1.545
  252W        W  254   0.879   2.106   1.635
  253W        W  255   1.192   3.517   2.385
  254W        W  256   3.259   3.613   3.417
  255W        W  257   2.418   1.801   2.350
  256W        W  258   0.267   1.599   0.265
  257W        W  259   3.401   3.257   0.962
  258W        W  260   3.238   0.581   0.581
  259W        W  261   1.377   0.100   2.984
  260W        W  262   3.083   2.902   1.442
  261W        W  263   3.112   1.458   1.347
  262W        W  264   1.229   1.131   1.563
  263W        W  265   1.474   1.393   2.887
  264W        W  266   2.585   2.546   2.750
  265W        W  267   1.235   1.000   2.862
  266W        W  268   1.214   3.466   1.478
  267W        W  269   0.531   3.425   3.112
  268W        W  270   0.643   2.786   0.242
  269W        W  271   3.160   2.544   1.052
  270W        W  272   0.764   1.336   2.938
  271W        W  273   3.537   1.266   0.419
  272W        W  274   1.282   2.323   0.890
  273W        W  275   2.381   1.705   2.971
  274W        W  276   2.272   1.333   2.515
  275W        W  277   0.832   1.705   2.544
  276W        W  278   3.042   3.593   2.373
  277W        W  279   2.833   0.227   3.367
  278W        W  280   0.497   0.377   2.954
  279W        W  281   0.836   1.400   2.007
  280W        W  282   1.205   1.214   0.129
  281W        W  283   0.008   2.973   2.674
  282W        W  284   1.593   1.682   2.117
  283W        W  285   1.416   0.707   0.222
  284W        W  286   0.551   1.523   1.003
  285W        W  287   0.322   3.375   2.440
  286W        W  288   3.117   1.601   0.548
  287W        W  289   3.212   0.517   3.234
  288W        W  290   2.648   2.726   1.197
  289W        W  291   0.246   1.650   3.374
  290W        W  292   3.212   0.114   0.670
  291W        W  293   2.732   2.589   0.681
  292W        W  294   1.634   1.647   0.766
  293W        W  295   2.821   0.451   0.289
  294W        W  296   2.886   1.058   2.475
  295W        W  297   0.595   1.651   1.682
  296W        W  298   0.889   2.590   1.331
  297W        W  299   2.652   1.210   1.296
  298W        W  300   1.675   0.589   1.992
  299W        W  301   3.637   2.500   2.503
  300W        W  302   3.555   0.487   2.064
  301W        W  303   0.094   3.317   1.440
  302W        W  304   0.603   2.504   0.976
  303W        W  305   0.518   0.121   3.529
  304W        W  306   1.637   2.974   3.631
  305W        W  307   3.392   1.942   1.421
  306W        W  308   2.746   2.119   0.301
  307W        W  309   2.041   3.640   2.513
  308W        W  310   2.898   2.362   3.550
  309W        W  311   1.713   0.072   0.830
  310W        W  312   2.426   0.941   1.689
  311W        W  313   0.112   2.528   2.021
  312W        W  314   1.365   0.490   0.662
  313W        W  315   1.169   1.974   3.511
  314W        W  316   2.163   0.955   1.225
  315W        W  317   2.368   2.365   2.347
  316W        W  318   0.522   2.970   2.782
  317W        W  319   1.113   2.953   3.505
  318W        W  320   0.964   0.750   0.519
  319W        W  321   2.481   0.892   0.844
  320W        W  322   2.439   3.000   3.081
  321W        W  323   1.124   1.592   1.680
  322W        W  324   0.779   3.290   2.545
  323W        W  325   3.524   3.407   0.146
  324W        W  326   0.387   2.079   3.142
  325W        W  327   2.382   2.341   1.830
  326W        W  328   0.818   1.990   1.072
  327W        W  329   1.189   2.997   2.467
  328W        W  330   1.567   0.416   1.508
  329W        W  331   0.178   2.400   0.438
  330W        W  332   1.697   1.351   0.308
  331W        W  333   0.343   1.900   1.327
  332W        W  334   1.633   0.542   2.791
  333W        W  335   3.305   0.251   0.218
  334W        W  336   3.398   1.997   3.317
  335W        W  337   2.052   3.254   3.469
  336W        W  338   3.610   2.348   2.991
  337W        W  339   3.018   3.146   3.602
  338W        W  340   0.757   3.602   2.080
  339W        W  341   3.616   2.224   0.954
  340W        W  342   2.146   1.491   1.467
  341W        W  343   1.913   0.103   1.357
  342W        W  344   0.972   3.087   1.194
  343W        W  345   1.471   0.828   2.419
  344W        W  346   1.171   0.197   1.888
  345W        W  347   0.234   3.019   0.436
  346W        W  348   2.050   2.383   1.154
  347W        W  349   0.925   3.178   3.033
  348W        W  350   0.402   2.001   0.729
  349W        W  351   0.287   0.544   1.728
  350W        W  352   1.835   2.509   1.785
  351W        W  353   0.087   0.363   0.805
  352W        W  354   2.751   1.569   2.732
  353W        W  355   2.628   0.955   0.304
  354W        W  356   3.145   2.627   1.952
  355W        W  357   1.806   3.111   1.783
  356W        W  358   1.218   3.215   0.694
  357W        W  359   2.500   0.118   0.124
  358W        W  360   0.300   3.378   1.865
  359W        W  361   2.497   1.136   3.500
  360W        W  362   0.480   0.666   3.499
  361W        W  363   0.211   1.266   0.832
  362W        W  364   0.902   1.255   0.557
  363W        W  365   2.665   1.582   3.374
  364W        W  366   1.008   1.863   2.083
  365W        W  367   2.482   0.149   1.203
  366W        W  368   1.613   3.580   1.706
  367W        W  369   2.827   3.042   2.643
  368W        W  370   2.411   3.191   1.754
  369W        W  371   2.430   2.171   1.348
  370W        W  372   1.892   0.396   0.419
  371W        W  373   3.573   0.024   1.141
  372W        W  374   1.261   1.659   0.304
  373W        W  375   3.427   0.996   1.294
  374W        W  376   2.119   2.166   0.171
  375W        W  377   3.055   2.366   2.919
  376W        W  378   2.709   3.067   0.386
  377W        W  379   1.324   0.742   3.292
  378W        W  380   1.144   1.326   2.533
  379W        W  381   3.236   2.821   2.810
  380W        W  382   2.336   0.771   3.187
  381W        W  383   0.180   1.242   2.964
  382W        W  384   1.940   1.719   2.690
  383W        W  385   0.297   2.477   1.347
  384W        W  386   0.444   1.774   2.237
  385W        W  387   2.761   2.060   2.587
  386W        W  388   2.533   3.440   3.398
  387W        W  389   2.429   1.179   2.951
  388W        W  390   2.706   3.233   1.356
  389W        W  391   1.708   2.953   2.679
  390W        W  392   1.193   3.308   1.948
  391W        W  393   2.998   2.479   2.367
  392W        W  394   2.048   2.551   3.504
  393W        W  395   0.653   2.504   1.843
  394W        W  396   2.999   2.263   1.488
  395W        W  397   2.640   3.329   2.239
  396W        W  398   0.618   3.058   2.109
  397W        W  399   1.639   1.110   3.319
  398W        W  400   2.090   3.276   0.830
  399W        W  401   1.398   2.531   3.468
  400W        W  402   1.524   2.769   0.845
  401W        W  403   0.745   1.509   0.104
  402W        W  404   3.165   2.218   4.296
  403W        W  405   1.213   3.294   3.849
  404W        W  406   1.802   2.109   4.430
  405W        W  407   2.231   1.301   4.007
  406W        W  408   1.788   2.536   3.976
  407W        W  409   0.484   0.375   4.811
  408W        W  410   3.172   0.769   3.762
  409W        W  411   3.378   2.743   4.259
  410W        W  412   0.507   3.529   4.013
  411W        W  413   0.900   3.575   4.689
  412W        W  414   2.725   1.769   4.849
  413W        W  415   2.691   1.457   3.876
  414W        W  416   3.176   1.809   4.631
  415W        W  417   2.078   0.467   4.647
  416W        W  418   0.735   3.161   4.330
  417W        W  419   1.691   3.234   4.188
  418W        W  420   3.083   1.260   3.652
  419W        W  421   1.270   1.950   4.915
  420W        W  422   0.740   1.989   3.773
  421W        W  423   0.395   1.022   3.952
  422W        W  424   0.457   2.978   4.746
  423W        W  425   1.846   0.962   4.392
  424W        W  426   0.012   1.712   4.586
  425W        W  427   2.327   1.391   4.537
  426W        W  428   2.204   1.881   4.641
  427W        W  429   2.193   0.775   4.098
  428W        W  430   1.383   1.082   4.255
  429W        W  431   3.371   1.332   4.545
  430W        W  432   1.040   0.085   4.251
  431W        W  433   3.511   2.868   3.731
  432W        W  434   2.335   0.658   3.663
  433W        W  435   2.046   2.735   4.390
  434W        W  436   2.145   3.302   4.982
  435W        W  437   3.319   2.305   3.826
  436W        W  438   1.754   1.788   4.887
  437W        W  439   2.824   1.318   4.505
  438W        W  440   2.920   3.091   4.536
  439W        W  441   2.650   1.773   4.310
  440W        W  442   3.303   0.425   4.777
  441W        W  443   1.489   3.301   4.742
  442W        W  444   0.604   0.481   4.000
  443W        W  445   0.736   3.255   3.658
  444W        W  446   1.110   1.721   4.409
  445W        W  447   1.594   0.708   4.712
  446W        W  448   0.942   0.498   4.664
  447W        W  449   0.947   0.726   3.689
  448W        W  450   1.720   1.862   3.996
  449W        W  451   0.988   0.177   3.766
  450W        W  452   1.726   1.258   4.817
  451W        W  453   0.423   3.482   4.707
  452W        W  454   0.790   2.297   4.191
  453W        W  455   2.425   2.529   3.877
  454W        W  456   3.576   0.828   4.473
  455W        W  457   0.054   3.489   4.268
  456W        W  458   1.316   2.782   3.923
  457W        W  459   3.221   3.164   4.109
  458W        W  460   2.196   1.817   4.123
  459W        W  461   1.039   1.008   4.640
  460W        W  462   1.871   0.918   3.692
  461W        W  463   2.808   0.389   4.487
  462W        W  464   0.138   0.237   3.935
  463W        W  465   0.965   2.424   3.715
  464W        W  466   0.206   2.665   4.483
  465W        W  467   1.318   0.205   4.748
  466W        W  468   2.377   0.282   4.253
  467W        W  469   0.481   0.783   4.420
  468W        W  470   3.448   1.674   3.721
  469W        W  471   0.002   0.694   3.958
  470W        W  472   2.013   3.560   3.994
  471W        W  473   0.159   2.067   3.691
  472W        W  474   3.560   1.919   4.181
  473W        W  475   2.423   2.251   4.280
  474W        W  476   2.897   3.551   3.975
  475W        W  477   1.491   0.117   3.934
  476W        W  478   3.030   2.716   3.877
  477W        W  479   2.570   3.453   4.391
  478W        W  480   1.031   2.736   4.376
  479W        W  481   2.786   2.234   4.640
  480W        W  482   1.883   2.922   4.828
  481W        W  483   2.157   2.966   3.943
  482W        W  484   1.299   2.211   4.025
  483W        W  485   3.011   3.593   4.744
  484W        W  486   0.267   1.599   3.909
  485W        W  487   3.401   3.257   4.606
  486W        W  488   3.238   0.581   4.225
  487W        W  489   0.643   2.786   3.886
  488W        W  490   3.160   2.544   4.696
  489W        W  491   3.537   1.266   4.063
  490W        W  492   1.282   2.323   4.534
  491W        W  493   1.205   1.214   3.773
  492W        W  494   1.416   0.707   3.866
  493W        W  495   0.551   1.523   4.647
  494W        W  496   3.117   1.601   4.192
  495W        W  497   2.648   2.726   4.841
  496W        W  498   3.212   0.114   4.314
  497W        W  499   2.732   2.589   4.325
  498W        W  500   1.634   1.647   4.410
  499W        W  501   2.821   0.451   3.933
  500W        W  502   0.094   3.317   5.084
  501W        W  503   0.603   2.504   4.620
  502W        W  504   2.746   2.119   3.945
  503W        W  505   1.713   0.072   4.474
  504W        W  506   1.365   0.490   4.306
  505W        W  507   0.964   0.750   4.163
  506W        W  508   2.481   0.892   4.488
  507W        W  509   3.524   3.407   3.790
  508W        W  510   0.818   1.990   4.716
  509W        W  511   0.178   2.400   4.082
  510W        W  512   1.697   1.351   3.952
  511W        W  513   3.305   0.251   3.862
  512W        W  514   3.616   2.224   4.598
  513W        W  515   1.913   0.103   5.001
  514W        W  516   0.234   3.019   4.080
  515W        W  517   2.050   2.383   4.798
  516W        W  518   0.402   2.001   4.373
  517W        W  519   0.087   0.363   4.449
  518W        W  520   2.628   0.955   3.948
  519W        W  521   1.218   3.215   4.338
  520W        W  522   2.500   0.118   3.768
  521W        W  523   0.211   1.266   4.476
  522W        W  524   0.902   1.255   4.201
  523W        W  525   1.892   0.396   4.063
  524W        W  526   3.573   0.024   4.785
  525W        W  527   1.261   1.659   3.948
  526W        W  528   2.119   2.166   3.815
  527W        W  529   2.709   3.067   4.030
  528W        W  530   0.297   2.477   4.991
  529W        W  531   2.090   3.276   4.474
  530W        W  532   1.524   2.769   4.489
  531W        W  533   0.745   1.509   3.748
  532W        W  534   0.126   4.406   3.104
  533W        W  535   0.888   3.686   2.906
  534W        W  536   2.582   4.074   1.793
  535W        W  537   2.801   4.379   3.454
  536W        W  538   0.167   4.171   2.579
  537W        W  539   1.113   4.854   3.262
  538W        W  540   0.071   4.902   3.570
  539W        W  541   0.484   4.019   1.167
  540W        W  542   2.887   4.460   2.023
  541W        W  543   3.172   4.413   0.118
  542W        W  544   0.697   3.973   2.471
  543W        W  545   1.705   4.575   1.571
  544W        W  546   2.078   4.111   1.003
  545W        W  547   0.106   4.304   1.285
  546W        W  548   2.892   4.911   1.759
  547W        W  549   3.083   4.904   0.008
  548W        W  550   1.292   3.999   2.364
  549W        W  551   3.521   3.761   1.661
  550W        W  552   0.395   4.666   0.308
  551W        W  553   1.846   4.606   0.748
  552W        W  554   2.906   4.857   3.118
  553W        W  555   0.422   3.738   1.552
  554W        W  556   2.190   4.085   2.113
  555W        W  557   1.838   4.270   3.276
  556W        W  558   2.193   4.419   0.454
  557W        W  559   2.343   3.893   3.247
  558W        W  560   2.792   4.361   2.965
  559W        W  561   2.592   4.299   1.235
  560W        W  562   1.383   4.726   0.611
  561W        W  563   0.952   4.010   3.275
  562W        W  564   3.004   4.494   0.956
  563W        W  565   1.040   3.729   0.607
  564W        W  566   3.361   4.263   1.642
  565W        W  567   2.335   4.302   0.019
  566W        W  568   3.508   3.828   2.489
  567W        W  569   2.120   3.650   1.795
  568W        W  570   0.732   4.553   1.858
  569W        W  571   3.339   4.543   2.210
  570W        W  572   3.606   3.943   2.984
  571W        W  573   1.972   4.664   2.023
  572W        W  574   2.824   4.962   0.861
  573W        W  575   3.111   4.695   0.503
  574W        W  576   0.339   4.430   2.143
  575W        W  577   2.399   4.407   2.606
  576W        W  578   3.303   4.069   1.133
  577W        W  579   0.077   4.709   2.472
  578W        W  580   2.937   4.504   1.490
  579W        W  581   3.348   4.655   3.267
  580W        W  582   0.604   4.125   0.356
  581W        W  583   1.708   3.779   2.166
  582W        W  584   1.594   4.352   1.068
  583W        W  585   2.950   3.949   1.496
  584W        W  586   0.942   4.142   1.020
  585W        W  587   0.947   4.370   0.045
  586W        W  588   2.596   3.845   2.309
  587W        W  589   0.988   3.821   0.122
  588W        W  590   2.696   3.878   2.872
  589W        W  591   1.989   3.842   3.596
  590W        W  592   1.211   4.458   1.989
  591W        W  593   0.637   4.414   1.387
  592W        W  594   2.097   4.194   1.561
  593W        W  595   3.576   4.472   0.829
  594W        W  596   1.953   4.403   2.430
  595W        W  597   1.039   4.652   0.996
  596W        W  598   1.871   4.562   0.048
  597W        W  599   2.808   4.033   0.843
  598W        W  600   0.138   3.881   0.291
  599W        W  601   1.414   3.939   3.467
  600W        W  602   2.123   4.081   2.823
  601W        W  603   1.318   3.849   1.104
  602W        W  604   2.377   3.926   0.609
  603W        W  605   0.322   3.858   2.186
  604W        W  606   3.059   3.929   1.962
  605W        W  607   0.481   4.427   0.776
  606W        W  608   3.052   4.115   2.392
  607W        W  609   0.740   4.076   1.896
  608W        W  610   1.854   4.648   2.836
  609W        W  611   0.002   4.338   0.314
  610W        W  612   3.174   3.753   2.860
  611W        W  613   3.610   4.074   3.465
  612W        W  614   1.491   3.761   0.290
  613W        W  615   0.799   4.453   3.119
  614W        W  616   3.359   4.438   2.779
  615W        W  617   1.059   4.132   2.781
  616W        W  618   0.554   4.504   2.720
  617W        W  619   1.855   3.759   3.084
  618W        W  620   0.910   4.494   2.379
  619W        W  621   0.880   3.842   1.489
  620W        W  622   2.501   4.684   2.181
  621W        W  623   1.110   4.257   1.545
  622W        W  624   3.238   4.225   0.581
  623W        W  625   1.377   3.744   2.984
  624W        W  626   1.229   4.775   1.563
  625W        W  627   1.235   4.644   2.862
  626W        W  628   3.537   4.910   0.419
  627W        W  629   2.272   4.977   2.515
  628W        W  630   2.833   3.871   3.367
  629W        W  631   0.497   4.021   2.954
  630W        W  632   1.416   4.351   0.222
  631W        W  633   3.212   4.161   3.234
  632W        W  634   3.212   3.758   0.670
  633W        W  635   2.821   4.095   0.289
  634W        W  636   2.886   4.702   2.475
  635W        W  637   1.675   4.233   1.992
  636W        W  638   3.555   4.131   2.064
  637W        W  639   0.518   3.765   3.529
  638W        W  640   1.713   3.716   0.830
  639W        W  641   2.426   4.585   1.689
  640W        W  642   1.365   4.134   0.662
  641W        W  643   2.163   4.599   1.225
  642W        W  644   0.964   4.394   0.519
  643W        W  645   2.481   4.536   0.844
  644W        W  646   1.567   4.060   1.508
  645W        W  647   1.633   4.186   2.791
  646W        W  648   3.305   3.895   0.218
  647W        W  649   1.913   3.747   1.357
  648W        W  650   1.471   4.472   2.419
  649W        W  651   1.171   3.841   1.888
  650W        W  652   0.287   4.188   1.728
  651W        W  653   0.087   4.007   0.805
  652W        W  654   2.628   4.599   0.304
  653W        W  655   2.500   3.762   0.124
  654W        W  656   2.497   4.780   3.500
  655W        W  657   0.480   4.310   3.499
  656W        W  658   0.211   4.910   0.832
  657W        W  659   2.482   3.793   1.203
  658W        W  660   1.892   4.040   0.419
  659W        W  661   3.573   3.668   1.141
  660W        W  662   3.427   4.640   1.294
  661W        W  663   1.324   4.386   3.292
  662W        W  664   1.144   4.970   2.533
  663W        W  665   2.336   4.415   3.187
  664W        W  666   0.180   4.886   2.964
  665W        W  667   2.429   4.823   2.951
  666W        W  668   1.639   4.754   3.319
  667W        W  669   0.484   4.019   4.811
  668W        W  670   3.172   4.413   3.762
  669W        W  671   2.078   4.111   4.647
  670W        W  672   3.083   4.904   3.652
  671W        W  673   0.395   4.666   3.952
  672W        W  674   1.846   4.606   4.392
  673W        W  675   2.193   4.419   4.098
  674W        W  676   1.383   4.726   4.255
  675W        W  677   3.004   4.494   4.600
  676W        W  678   1.040   3.729   4.251
  677W        W  679   2.335   4.302   3.663
  678W        W  680   2.824   4.962   4.505
  679W        W  681   3.111   4.695   4.147
  680W        W  682   3.303   4.069   4.777
  681W        W  683   0.604   4.125   4.000
  682W        W  684   1.594   4.352   4.712
  683W        W  685   0.942   4.142   4.664
  684W        W  686   0.947   4.370   3.689
  685W        W  687   0.988   3.821   3.766
  686W        W  688   3.576   4.472   4.473
  687W        W  689   1.039   4.652   4.640
  688W        W  690   1.871   4.562   3.692
  689W        W  691   2.808   4.033   4.487
  690W        W  692   0.138   3.881   3.935
  691W        W  693   1.318   3.849   4.748
  692W        W  694   2.377   3.926   4.253
  693W        W  695   0.481   4.427   4.420
  694W        W  696   0.002   4.338   3.958
  695W        W  697   1.491   3.761   3.934
  696W        W  698   3.238   4.225   4.225
  697W        W  699   1.229   4.775   5.207
  698W        W  700   3.537   4.910   4.063
  699W        W  701   1.416   4.351   3.866
  700W        W  702   3.212   3.758   4.314
  701W        W  703   2.821   4.095   3.933
  702W        W  704   1.713   3.716   4.474
  703W        W  705   1.365   4.134   4.306
  704W        W  706   0.964   4.394   4.163
  705W        W  707   2.481   4.536   4.488
  706W        W  708   3.305   3.895   3.862
  707W        W  709   0.087   4.007   4.449
  708W        W  710   2.628   4.599   3.948
  709W        W  711   2.500   3.762   3.768
  710W        W  712   0.211   4.910   4.476
  711W        W  713   1.892   4.040   4.063
  712W        W  714   3.573   3.668   4.785
  713W        W  715   3.728   3.595   3.359
  714W        W  716   4.104   2.488   2.882
  715W        W  717   4.455   1.294   1.352
  716W        W  718   3.770   0.762   3.104
  717W        W  719   4.532   0.042   2.906
  718W        W  720   3.811   0.527   2.579
  719W        W  721   3.910   3.146   3.600
  720W        W  722   3.864   1.319   2.025
  721W        W  723   4.757   1.210   3.262
  722W        W  724   4.334   2.218   2.248
  723W        W  725   3.693   1.746   1.819
  724W        W  726   4.729   1.718   3.011
  725W        W  727   4.616   2.945   1.710
  726W        W  728   3.715   1.258   3.570
  727W        W  729   4.128   0.375   1.167
  728W        W  730   4.655   2.633   2.166
  729W        W  731   4.151   3.529   0.369
  730W        W  732   4.544   3.575   1.045
  731W        W  733   4.341   0.329   2.471
  732W        W  734   4.379   3.161   0.686
  733W        W  735   3.750   0.660   1.285
  734W        W  736   3.994   2.884   1.674
  735W        W  737   3.750   3.018   2.172
  736W        W  738   4.541   2.590   2.652
  737W        W  739   4.384   1.989   0.129
  738W        W  740   4.039   1.022   0.308
  739W        W  741   4.101   2.978   1.102
  740W        W  742   3.656   1.712   0.942
  741W        W  743   4.191   1.301   2.471
  742W        W  744   4.176   1.177   3.393
  743W        W  745   4.066   0.094   1.552
  744W        W  746   4.369   3.365   1.625
  745W        W  747   4.596   0.366   3.275
  746W        W  748   4.684   0.085   0.607
  747W        W  749   4.062   2.071   1.789
  748W        W  750   4.376   0.909   1.858
  749W        W  751   3.930   2.109   2.632
  750W        W  752   3.983   0.786   2.143
  751W        W  753   3.721   1.065   2.472
  752W        W  754   4.248   0.481   0.356
  753W        W  755   4.380   3.255   0.014
  754W        W  756   4.586   0.498   1.020
  755W        W  757   4.591   0.726   0.045
  756W        W  758   3.660   2.044   2.194
  757W        W  759   4.632   0.177   0.122
  758W        W  760   4.928   2.246   2.981
  759W        W  761   4.855   0.814   1.989
  760W        W  762   4.281   0.770   1.387
  761W        W  763   4.067   3.482   1.063
  762W        W  764   4.434   2.297   0.547
  763W        W  765   3.714   3.417   2.860
  764W        W  766   4.131   2.643   2.392
  765W        W  767   3.698   3.489   0.624
  766W        W  768   4.683   1.008   0.996
  767W        W  769   3.782   0.237   0.291
  768W        W  770   5.068   2.556   2.581
  769W        W  771   4.867   2.472   1.673
  770W        W  772   4.609   2.424   0.071
  771W        W  773   3.850   2.665   0.839
  772W        W  774   4.354   1.735   3.281
  773W        W  775   3.966   0.214   2.186
  774W        W  776   4.014   1.177   1.556
  775W        W  777   4.125   0.783   0.776
  776W        W  778   4.384   0.432   1.896
  777W        W  779   3.646   0.694   0.314
  778W        W  780   4.432   2.083   2.875
  779W        W  781   3.803   2.067   0.047
  780W        W  782   4.538   2.478   3.173
  781W        W  783   4.059   1.645   2.804
  782W        W  784   5.050   1.750   2.598
  783W        W  785   4.048   2.508   3.513
  784W        W  786   4.443   0.809   3.119
  785W        W  787   4.703   0.488   2.781
  786W        W  788   4.675   2.736   0.732
  787W        W  789   4.198   0.860   2.720
  788W        W  790   3.811   2.858   3.141
  789W        W  791   4.554   0.850   2.379
  790W        W  792   4.524   0.198   1.489
  791W        W  793   4.268   2.911   3.303
  792W        W  794   4.754   0.613   1.545
  793W        W  795   4.523   2.106   1.635
  794W        W  796   4.836   3.517   2.385
  795W        W  797   3.911   1.599   0.265
  796W        W  798   4.873   1.131   1.563
  797W        W  799   4.175   3.425   3.112
  798W        W  800   4.287   2.786   0.242
  799W        W  801   4.408   1.336   2.938
  800W        W  802   4.926   2.323   0.890
  801W        W  803   4.476   1.705   2.544
  802W        W  804   4.141   0.377   2.954
  803W        W  805   4.480   1.400   2.007
  804W        W  806   4.849   1.214   0.129
  805W        W  807   3.652   2.973   2.674
  806W        W  808   4.195   1.523   1.003
  807W        W  809   3.966   3.375   2.440
  808W        W  810   3.890   1.650   3.374
  809W        W  811   4.239   1.651   1.682
  810W        W  812   4.533   2.590   1.331
  811W        W  813   3.738   3.317   1.440
  812W        W  814   4.247   2.504   0.976
  813W        W  815   4.162   0.121   3.529
  814W        W  816   3.756   2.528   2.021
  815W        W  817   4.166   2.970   2.782
  816W        W  818   4.757   2.953   3.505
  817W        W  819   4.608   0.750   0.519
  818W        W  820   4.423   3.290   2.545
  819W        W  821   4.031   2.079   3.142
  820W        W  822   4.462   1.990   1.072
  821W        W  823   3.822   2.400   0.438
  822W        W  824   3.987   1.900   1.327
  823W        W  825   4.401   3.602   2.080
  824W        W  826   4.616   3.087   1.194
  825W        W  827   4.815   0.197   1.888
  826W        W  828   3.878   3.019   0.436
  827W        W  829   4.569   3.178   3.033
  828W        W  830   4.046   2.001   0.729
  829W        W  831   3.931   0.544   1.728
  830W        W  832   3.731   0.363   0.805
  831W        W  833   3.944   3.378   1.865
  832W        W  834   4.124   0.666   3.499
  833W        W  835   3.855   1.266   0.832
  834W        W  836   4.546   1.255   0.557
  835W        W  837   4.652   1.863   2.083
  836W        W  838   3.824   1.242   2.964
  837W        W  839   3.941   2.477   1.347
  838W        W  840   4.088   1.774   2.237
  839W        W  841   4.837   3.308   1.948
  840W        W  842   4.297   2.504   1.843
  841W        W  843   4.262   3.058   2.109
  842W        W  844   4.389   1.509   0.104
  843W        W  845   4.857   3.294   3.849
  844W        W  846   4.128   0.375   4.811
  845W        W  847   4.151   3.529   4.013
  846W        W  848   4.544   3.575   4.689
  847W        W  849   4.379   3.161   4.330
  848W        W  850   4.384   1.989   3.773
  849W        W  851   4.039   1.022   3.952
  850W        W  852   4.101   2.978   4.746
  851W        W  853   3.656   1.712   4.586
  852W        W  854   4.684   0.085   4.251
  853W        W  855   4.248   0.481   4.000
  854W        W  856   4.380   3.255   3.658
  855W        W  857   4.586   0.498   4.664
  856W        W  858   4.591   0.726   3.689
  857W        W  859   4.632   0.177   3.766
  858W        W  860   4.067   3.482   4.707
  859W        W  861   4.434   2.297   4.191
  860W        W  862   3.698   3.489   4.268
  861W        W  863   4.683   1.008   4.640
  862W        W  864   3.782   0.237   3.935
  863W        W  865   4.609   2.424   3.715
  864W        W  866   3.850   2.665   4.483
  865W        W  867   4.125   0.783   4.420
  866W        W  868   3.646   0.694   3.958
  867W        W  869   3.803   2.067   3.691
  868W        W  870   4.675   2.736   4.376
  869W        W  871   3.911   1.599   3.909
  870W        W  872   4.287   2.786   3.886
  871W        W  873   4.926   2.323   4.534
  872W        W  874   4.195   1.523   4.647
  873W        W  875   4.247   2.504   4.620
  874W        W  876   4.608   0.750   4.163
  875W        W  877   4.768   1.592   5.324
  876W        W  878   4.462   1.990   4.716
  877W        W  879   3.822   2.400   4.082
  878W        W  880   3.878   3.019   4.080
  879W        W  881   4.046   2.001   4.373
  880W        W  882   3.731   0.363   4.449
  881W        W  883   3.855   1.266   4.476
  882W        W  884   4.546   1.255   4.201
  883W        W  885   3.941   2.477   4.991
  884W        W  886   4.389   1.509   3.748
  885W        W  887   4.940   5.090   1.188
  886W        W  888   3.770   4.406   3.104
  887W        W  889   4.532   3.686   2.906
  888W        W  890   3.811   4.171   2.579
  889W        W  891   4.757   4.854   3.262
  890W        W  892   3.715   4.902   3.570
  891W        W  893   4.128   4.019   1.167
  892W        W  894   4.341   3.973   2.471
  893W        W  895   3.750   4.304   1.285
  894W        W  896   4.039   4.666   0.308
  895W        W  897   4.066   3.738   1.552
  896W        W  898   4.596   4.010   3.275
  897W        W  899   4.684   3.729   0.607
  898W        W  900   4.376   4.553   1.858
  899W        W  901   3.983   4.430   2.143
  900W        W  902   3.721   4.709   2.472
  901W        W  903   4.248   4.125   0.356
  902W        W  904   4.586   4.142   1.020
  903W        W  905   4.591   4.370   0.045
  904W        W  906   4.632   3.821   0.122
  905W        W  907   4.855   4.458   1.989
  906W        W  908   4.281   4.414   1.387
  907W        W  909   4.683   4.652   0.996
  908W        W  910   3.782   3.881   0.291
  909W        W  911   3.966   3.858   2.186
  910W        W  912   4.125   4.427   0.776
  911W        W  913   4.384   4.076   1.896
  912W        W  914   3.646   4.338   0.314
  913W        W  915   4.443   4.453   3.119
  914W        W  916   4.703   4.132   2.781
  915W        W  917   4.198   4.504   2.720
  916W        W  918   4.554   4.494   2.379
  917W        W  919   4.524   3.842   1.489
  918W        W  920   4.754   4.257   1.545
  919W        W  921   4.873   4.775   1.563
  920W        W  922   4.141   4.021   2.954
  921W        W  923   4.162   3.765   3.529
  922W        W  924   4.608   4.394   0.519
  923W        W  925   4.815   3.841   1.888
  924W        W  926   3.931   4.188   1.728
  925W        W  927   3.731   4.007   0.805
  926W        W  928   4.124   4.310   3.499
  927W        W  929   3.855   4.910   0.832
  928W        W  930   3.824   4.886   2.964
  929W        W  931   4.940   5.090   4.832
  930W        W  932   4.128   4.019   4.811
  931W        W  933   4.039   4.666   3.952
  932W        W  934   4.684   3.729   4.251
  933W        W  935   4.248   4.125   4.000
  934W        W  936   4.586   4.142   4.664
  935W        W  937   4.591   4.370   3.689
  936W        W  938   4.632   3.821   3.766
  937W        W  939   4.683   4.652   4.640
  938W        W  940   3.782   3.881   3.935
  939W        W  941   4.125   4.427   4.420
  940W        W  942   3.646   4.338   3.958
  941W        W  943   4.873   4.775   5.207
  942W        W  944   4.608   4.394   4.163
  943W        W  945   3.731   4.007   4.449
  944W        W  946   3.855   4.910   4.476
   5.00000   5.00000   5.00000
